LAMMPS data file
# Generated by Playmol on 4-Aug-2017 at 19:16:33

3 atom types
1 bond types
1 angle types

146 atoms
92 bonds
46 angles

-6.5707292288044261 6.5707292288044261 xlo xhi
-6.5707292288044261 6.5707292288044261 ylo yhi
-6.5707292288044261 6.5707292288044261 zlo zhi

Masses

1 1.008 # HW
2 15.9994 # OW
3 16 # CH4

Pair Coeffs # hybrid

1 0.0000 0.0000 # HW
2 0.1520 3.1507 # OW
3 0 # CH4

Bond Coeffs # 553.00

1 0.9572 # HW OW

Angle Coeffs # 100.00

1 104.52 # HW OW HW

Atoms

1 1 1 0.417 -0.79895996999999996 2.9370000600000001E-002 3.5324099100000002 # H1_W_1
2 1 2 -0.834 0.0000000000000000 0.0000000000000000 3.0060699000000000 # O_W_1
3 1 1 0.417 -2.9349999500000001E-002 0.79944998000000000 2.4804699399999999 # H2_W_1
4 2 1 0.417 0.79895996999999996 -2.9370000600000001E-002 8.4975900699999993 # H1_W_2
5 2 2 -0.834 0.0000000000000000 0.0000000000000000 9.0239296000000007 # O_W_2
6 2 1 0.417 2.9349999500000001E-002 -0.79944998000000000 9.5495300299999997 # H2_W_2
7 3 1 0.417 -0.78565001499999998 2.8039200300000000 1.6780600500000000 # H1_W_3
8 3 2 -0.834 0.0000000000000000 2.3207800399999998 1.4220000500000001 # O_W_3
9 3 1 0.417 -1.4179999900000000E-002 2.3294999600000001 0.46494001200000001 # H2_W_3
10 4 1 0.417 -1.6100000399999999E-003 1.5307699400000001 10.067529700000000 # H1_W_4
11 4 2 -0.834 0.0000000000000000 2.3207800399999998 10.607999800000000 # O_W_4
12 4 1 0.417 -0.78214997100000005 2.8001298900000000 10.334679599999999 # H2_W_4
13 5 1 0.417 1.6100000399999999E-003 10.499230400000000 1.9624700500000001 # H1_W_5
14 5 2 -0.834 0.0000000000000000 9.7092199299999997 1.4220000500000001 # O_W_5
15 5 1 0.417 0.78214997100000005 9.2298698399999992 1.6953200100000001 # H2_W_5
16 6 1 0.417 0.78565001499999998 9.2260799400000000 10.351940200000000 # H1_W_6
17 6 2 -0.834 0.0000000000000000 9.7092199299999997 10.607999800000000 # O_W_6
18 6 1 0.417 1.4179999900000000E-002 9.7004995300000001 11.565059700000001 # H2_W_6
19 7 1 0.417 5.2160401299999997 3.5324099100000002 -2.9370000600000001E-002 # H1_W_7
20 7 2 -0.834 6.0149998699999996 3.0060699000000000 0.0000000000000000 # O_W_7
21 7 1 0.417 5.9856500600000002 2.4804699399999999 -0.79944998000000000 # H2_W_7
22 8 1 0.417 6.8139600800000002 8.4975900699999993 2.9370000600000001E-002 # H1_W_8
23 8 2 -0.834 6.0149998699999996 9.0239296000000007 0.0000000000000000 # O_W_8
24 8 1 0.417 6.0443501499999996 9.5495300299999997 0.79944998000000000 # H2_W_8
25 9 1 0.417 6.0133900599999999 1.9624700500000001 1.5307699400000001 # H1_W_9
26 9 2 -0.834 6.0149998699999996 1.4220000500000001 2.3207800399999998 # O_W_9
27 9 1 0.417 5.2328500699999996 1.6953200100000001 2.8001298900000000 # H2_W_9
28 10 1 0.417 5.2293500899999996 10.351940200000000 2.8039200300000000 # H1_W_10
29 10 2 -0.834 6.0149998699999996 10.607999800000000 2.3207800399999998 # O_W_10
30 10 1 0.417 6.0008201600000000 11.565059700000001 2.3294999600000001 # H2_W_10
31 11 1 0.417 6.8006501200000002 1.6780600500000000 9.2260799400000000 # H1_W_11
32 11 2 -0.834 6.0149998699999996 1.4220000500000001 9.7092199299999997 # O_W_11
33 11 1 0.417 6.0291800499999999 0.46494001200000001 9.7004995300000001 # H2_W_11
34 12 1 0.417 6.0166101500000000 10.067529700000000 10.499230400000000 # H1_W_12
35 12 2 -0.834 6.0149998699999996 10.607999800000000 9.7092199299999997 # O_W_12
36 12 1 0.417 6.7971501400000003 10.334679599999999 9.2298698399999992 # H2_W_12
37 13 1 0.417 3.6766700700000001 5.5494799600000002 2.7799999299999999E-002 # H1_W_13
38 13 2 -0.834 3.6946799800000001 4.5928502099999999 0.0000000000000000 # O_W_13
39 13 1 0.417 3.1957299699999999 4.3209400200000001 0.77029001699999999 # H2_W_13
40 14 1 0.417 4.4854397800000001 7.9765200600000004 1.6700000299999999E-003 # H1_W_14
41 14 2 -0.834 3.6946799800000001 7.4371499999999999 0.0000000000000000 # O_W_14
42 14 1 0.417 3.1996901000000002 7.7393097900000001 -0.76152002799999996 # H2_W_14
43 15 1 0.417 1.5295599700000000 1.6700000299999999E-003 4.0534801500000004 # H1_W_15
44 15 2 -0.834 2.3203198899999999 0.0000000000000000 4.5928502099999999 # O_W_15
45 15 1 0.417 2.8153100000000002 -0.76152002799999996 4.2906899500000000 # H2_W_15
46 16 1 0.417 2.3383300299999998 2.7799999299999999E-002 6.4805197699999999 # H1_W_16
47 16 2 -0.834 2.3203198899999999 0.0000000000000000 7.4371499999999999 # O_W_16
48 16 1 0.417 2.8192699000000001 0.77029001699999999 7.7090601899999998 # H2_W_16
49 17 1 0.417 2.7815001000000001 3.1246900599999998 2.7593100100000001 # H1_W_17
50 17 2 -0.834 2.2633700399999999 3.7126500600000001 2.2097001100000000 # O_W_17
51 17 1 0.417 1.4968800499999999 3.1958398799999999 1.9614599900000000 # H2_W_17
52 18 1 0.417 2.7209799299999999 3.9940600399999999 10.612529800000001 # H1_W_18
53 18 2 -0.834 2.2633700399999999 3.7126500600000001 9.8203001000000008 # O_W_18
54 18 1 0.417 1.4953500000000000 3.2403500099999998 10.141730300000001 # H2_W_18
55 19 1 0.417 2.7525799300000000 7.9864502000000002 1.4564299599999999 # H1_W_19
56 19 2 -0.834 2.2633700399999999 8.3173503899999996 2.2097001100000000 # O_W_19
57 19 1 0.417 1.9954500200000000 7.5314202300000002 2.6858999699999999 # H2_W_19
58 20 1 0.417 2.8073699500000000 8.8443899199999993 9.2350397100000006 # H1_W_20
59 20 2 -0.834 2.2633700399999999 8.3173503899999996 9.8203001000000008 # O_W_20
60 20 1 0.417 2.0035600699999998 7.5627598799999998 9.2917804700000008 # H2_W_20
61 21 1 0.417 3.2624299500000000 1.4564399699999999 4.0435800600000000 # H1_W_21
62 21 2 -0.834 3.7516300700000000 2.2097001100000000 3.7126500600000001 # O_W_21
63 21 1 0.417 4.0194602000000001 2.6859901000000002 4.4985499400000002 # H2_W_21
64 22 1 0.417 4.0114102400000000 9.2917203900000001 4.4671998000000004 # H1_W_22
65 22 2 -0.834 3.7516300700000000 9.8203001000000008 3.7126500600000001 # O_W_22
66 22 1 0.417 3.2076199100000000 9.2350997899999996 3.1855599899999998 # H2_W_22
67 23 1 0.417 4.5181198100000000 1.9614599900000000 8.8341598500000007 # H1_W_23
68 23 2 -0.834 3.7516300700000000 2.2097001100000000 8.3173503899999996 # O_W_23
69 23 1 0.417 3.2334999999999998 2.7593100100000001 8.9053096800000002 # H2_W_23
70 24 1 0.417 3.2940199400000001 10.612529800000001 8.0359401699999999 # H1_W_24
71 24 2 -0.834 3.7516300700000000 9.8203001000000008 8.3173503899999996 # O_W_24
72 24 1 0.417 4.5196499799999996 10.141730300000001 8.7896499600000002 # H2_W_24
73 25 1 0.417 7.5445599600000000 4.0534801500000004 -1.6700000299999999E-003 # H1_W_25
74 25 2 -0.834 8.3353204699999992 4.5928502099999999 0.0000000000000000 # O_W_25
75 25 1 0.417 8.8303098700000007 4.2906899500000000 0.76152002799999996 # H2_W_25
76 26 1 0.417 8.3533296600000000 6.4805197699999999 -2.7799999299999999E-002 # H1_W_26
77 26 2 -0.834 8.3353204699999992 7.4371499999999999 0.0000000000000000 # O_W_26
78 26 1 0.417 8.8342695199999994 7.7090601899999998 -0.77029001699999999 # H2_W_26
79 27 1 0.417 9.6916704199999995 -2.7799999299999999E-002 5.5494799600000002 # H1_W_27
80 27 2 -0.834 9.7096795999999994 0.0000000000000000 4.5928502099999999 # O_W_27
81 27 1 0.417 9.2107296000000005 -0.77029001699999999 4.3209400200000001 # H2_W_27
82 28 1 0.417 10.500439600000000 -1.6700000299999999E-003 7.9765200600000004 # H1_W_28
83 28 2 -0.834 9.7096795999999994 0.0000000000000000 7.4371499999999999 # O_W_28
84 28 1 0.417 9.2146902100000005 0.76152002799999996 7.7393097900000001 # H2_W_28
85 29 1 0.417 9.2226295500000006 3.1856100600000001 2.7949600200000000 # H1_W_29
86 29 2 -0.834 9.7666301700000009 3.7126500600000001 2.2097001100000000 # O_W_29
87 29 1 0.417 10.026439699999999 4.4672398600000003 2.7382199800000002 # H2_W_29
88 30 1 0.417 9.2774200400000009 4.0435500099999997 10.573570300000000 # H1_W_30
89 30 2 -0.834 9.7666301700000009 3.7126500600000001 9.8203001000000008 # O_W_30
90 30 1 0.417 10.034549699999999 4.4985799799999997 9.3440999999999992 # H2_W_30
91 31 1 0.417 9.3090200400000001 8.0359401699999999 1.4174699799999999 # H1_W_31
92 31 2 -0.834 9.7666301700000009 8.3173503899999996 2.2097001100000000 # O_W_31
93 31 1 0.417 10.534649800000000 8.7896499600000002 1.8882700200000000 # H2_W_31
94 32 1 0.417 9.2484998699999998 8.9053096800000002 9.2706899600000003 # H1_W_32
95 32 2 -0.834 9.7666301700000009 8.3173503899999996 9.8203001000000008 # O_W_32
96 32 1 0.417 10.533120200000001 8.8341598500000007 10.068539599999999 # H2_W_32
97 33 1 0.417 8.7359800300000003 1.4174699799999999 3.9940600399999999 # H1_W_33
98 33 2 -0.834 8.2783698999999995 2.2097001100000000 3.7126500600000001 # O_W_33
99 33 1 0.417 7.5103502300000002 1.8882700200000000 3.2403500099999998 # H2_W_33
100 34 1 0.417 7.5118799200000002 10.068539599999999 3.1958398799999999 # H1_W_34
101 34 2 -0.834 8.2783698999999995 9.8203001000000008 3.7126500600000001 # O_W_34
102 34 1 0.417 8.7965002099999996 9.2706899600000003 3.1246900599999998 # H2_W_34
103 35 1 0.417 8.0185899700000007 2.7382800600000001 7.5627999299999997 # H1_W_35
104 35 2 -0.834 8.2783698999999995 2.2097001100000000 8.3173503899999996 # O_W_35
105 35 1 0.417 8.8223800699999995 2.7948999400000001 8.8444404599999995 # H2_W_35
106 36 1 0.417 8.7675695400000002 10.573559800000000 7.9864201499999998 # H1_W_36
107 36 2 -0.834 8.2783698999999995 9.8203001000000008 8.3173503899999996 # O_W_36
108 36 1 0.417 8.0105400099999997 9.3440103499999996 7.5314497899999999 # H2_W_36
109 37 1 0.417 3.5324099100000002 6.8139600800000002 5.9856300400000002 # H1_W_37
110 37 2 -0.834 3.0060699000000000 6.0149998699999996 6.0149998699999996 # O_W_37
111 37 1 0.417 2.4804699399999999 6.0443501499999996 5.2155499499999998 # H2_W_37
112 38 1 0.417 8.4975900699999993 5.2160401299999997 6.0443701699999997 # H1_W_38
113 38 2 -0.834 9.0239296000000007 6.0149998699999996 6.0149998699999996 # O_W_38
114 38 1 0.417 9.5495300299999997 5.9856500600000002 6.8144497900000003 # H2_W_38
115 39 1 0.417 1.7068500499999999 5.2447400100000001 8.8275098799999991 # H1_W_39
116 39 2 -0.834 1.4220000500000001 6.0149998699999996 8.3357801400000007 # O_W_39
117 39 1 0.417 1.9642499700000000 6.0102100399999996 7.5469999300000001 # H2_W_39
118 40 1 0.417 10.347430200000000 6.7890901599999998 8.8348998999999999 # H1_W_40
119 40 2 -0.834 10.607999800000000 6.0149998699999996 8.3357801400000007 # O_W_40
120 40 1 0.417 11.564959500000001 6.0329198799999997 8.3473396300000005 # H2_W_40
121 41 1 0.417 1.6825699800000000 5.2409100500000001 3.1951000700000001 # H1_W_41
122 41 2 -0.834 1.4220000500000001 6.0149998699999996 3.6942200700000001 # O_W_41
123 41 1 0.417 0.46503999800000001 5.9970798500000004 3.6826601000000001 # H2_W_41
124 42 1 0.417 10.323149700000000 6.7852601999999997 3.2024900900000000 # H1_W_42
125 42 2 -0.834 10.607999800000000 6.0149998699999996 3.6942200700000001 # O_W_42
126 42 1 0.417 10.065750100000001 6.0197901700000003 4.4829998000000000 # H2_W_42
127 43 1 0.417 4.0499701500000000 4.4830298400000004 6.0196499799999996 # H1_W_43
128 43 2 -0.834 4.5928502099999999 3.6946799800000001 6.0149998699999996 # O_W_43
129 43 1 0.417 4.3081798600000001 3.2027099099999998 6.7851700800000003 # H2_W_43
130 44 1 0.417 6.4801897999999998 3.6831400400000001 5.9971098899999999 # H1_W_44
131 44 2 -0.834 7.4371499999999999 3.6946799800000001 6.0149998699999996 # O_W_44
132 44 1 0.417 7.6976900099999996 3.1954500700000001 5.2409701300000000 # H2_W_44
133 45 1 0.417 5.5498099300000003 8.3468599300000008 6.0328898400000002 # H1_W_45
134 45 2 -0.834 4.5928502099999999 8.3353204699999992 6.0149998699999996 # O_W_45
135 45 1 0.417 4.3323102000000002 8.8345499000000007 6.7890300799999999 # H2_W_45
136 46 1 0.417 7.9800300599999998 7.5469698899999997 6.0103502300000002 # H1_W_46
137 46 2 -0.834 7.4371499999999999 8.3353204699999992 6.0149998699999996 # O_W_46
138 46 1 0.417 7.7218198800000000 8.8272895800000004 5.2448301300000004 # H2_W_46
139 47 3 0 0.0000000000000000 6.0149999999999997 0.0000000000000000 # CH4_1
140 48 3 0 6.0149999999999997 0.0000000000000000 6.0149999999999997 # CH4_2
141 49 3 0 3.0080000000000000 0.0000000000000000 0.0000000000000000 # CH4_3
142 50 3 0 9.0229999999999997 0.0000000000000000 0.0000000000000000 # CH4_4
143 51 3 0 0.0000000000000000 2.9920000000000000 6.0149999999999997 # CH4_5
144 52 3 0 0.0000000000000000 9.0380000000000003 6.0149999999999997 # CH4_6
145 53 3 0 6.0149999999999997 6.0149999999999997 2.9920000000000000 # CH4_7
146 54 3 0 6.0149999999999997 6.0149999999999997 9.0380000000000003 # CH4_8

Bonds

1 1 2 1 # O_W_1 H1_W_1
2 1 2 3 # O_W_1 H2_W_1
3 1 5 4 # O_W_2 H1_W_2
4 1 5 6 # O_W_2 H2_W_2
5 1 8 7 # O_W_3 H1_W_3
6 1 8 9 # O_W_3 H2_W_3
7 1 11 10 # O_W_4 H1_W_4
8 1 11 12 # O_W_4 H2_W_4
9 1 14 13 # O_W_5 H1_W_5
10 1 14 15 # O_W_5 H2_W_5
11 1 17 16 # O_W_6 H1_W_6
12 1 17 18 # O_W_6 H2_W_6
13 1 20 19 # O_W_7 H1_W_7
14 1 20 21 # O_W_7 H2_W_7
15 1 23 22 # O_W_8 H1_W_8
16 1 23 24 # O_W_8 H2_W_8
17 1 26 25 # O_W_9 H1_W_9
18 1 26 27 # O_W_9 H2_W_9
19 1 29 28 # O_W_10 H1_W_10
20 1 29 30 # O_W_10 H2_W_10
21 1 32 31 # O_W_11 H1_W_11
22 1 32 33 # O_W_11 H2_W_11
23 1 35 34 # O_W_12 H1_W_12
24 1 35 36 # O_W_12 H2_W_12
25 1 38 37 # O_W_13 H1_W_13
26 1 38 39 # O_W_13 H2_W_13
27 1 41 40 # O_W_14 H1_W_14
28 1 41 42 # O_W_14 H2_W_14
29 1 44 43 # O_W_15 H1_W_15
30 1 44 45 # O_W_15 H2_W_15
31 1 47 46 # O_W_16 H1_W_16
32 1 47 48 # O_W_16 H2_W_16
33 1 50 49 # O_W_17 H1_W_17
34 1 50 51 # O_W_17 H2_W_17
35 1 53 52 # O_W_18 H1_W_18
36 1 53 54 # O_W_18 H2_W_18
37 1 56 55 # O_W_19 H1_W_19
38 1 56 57 # O_W_19 H2_W_19
39 1 59 58 # O_W_20 H1_W_20
40 1 59 60 # O_W_20 H2_W_20
41 1 62 61 # O_W_21 H1_W_21
42 1 62 63 # O_W_21 H2_W_21
43 1 65 64 # O_W_22 H1_W_22
44 1 65 66 # O_W_22 H2_W_22
45 1 68 67 # O_W_23 H1_W_23
46 1 68 69 # O_W_23 H2_W_23
47 1 71 70 # O_W_24 H1_W_24
48 1 71 72 # O_W_24 H2_W_24
49 1 74 73 # O_W_25 H1_W_25
50 1 74 75 # O_W_25 H2_W_25
51 1 77 76 # O_W_26 H1_W_26
52 1 77 78 # O_W_26 H2_W_26
53 1 80 79 # O_W_27 H1_W_27
54 1 80 81 # O_W_27 H2_W_27
55 1 83 82 # O_W_28 H1_W_28
56 1 83 84 # O_W_28 H2_W_28
57 1 86 85 # O_W_29 H1_W_29
58 1 86 87 # O_W_29 H2_W_29
59 1 89 88 # O_W_30 H1_W_30
60 1 89 90 # O_W_30 H2_W_30
61 1 92 91 # O_W_31 H1_W_31
62 1 92 93 # O_W_31 H2_W_31
63 1 95 94 # O_W_32 H1_W_32
64 1 95 96 # O_W_32 H2_W_32
65 1 98 97 # O_W_33 H1_W_33
66 1 98 99 # O_W_33 H2_W_33
67 1 101 100 # O_W_34 H1_W_34
68 1 101 102 # O_W_34 H2_W_34
69 1 104 103 # O_W_35 H1_W_35
70 1 104 105 # O_W_35 H2_W_35
71 1 107 106 # O_W_36 H1_W_36
72 1 107 108 # O_W_36 H2_W_36
73 1 110 109 # O_W_37 H1_W_37
74 1 110 111 # O_W_37 H2_W_37
75 1 113 112 # O_W_38 H1_W_38
76 1 113 114 # O_W_38 H2_W_38
77 1 116 115 # O_W_39 H1_W_39
78 1 116 117 # O_W_39 H2_W_39
79 1 119 118 # O_W_40 H1_W_40
80 1 119 120 # O_W_40 H2_W_40
81 1 122 121 # O_W_41 H1_W_41
82 1 122 123 # O_W_41 H2_W_41
83 1 125 124 # O_W_42 H1_W_42
84 1 125 126 # O_W_42 H2_W_42
85 1 128 127 # O_W_43 H1_W_43
86 1 128 129 # O_W_43 H2_W_43
87 1 131 130 # O_W_44 H1_W_44
88 1 131 132 # O_W_44 H2_W_44
89 1 134 133 # O_W_45 H1_W_45
90 1 134 135 # O_W_45 H2_W_45
91 1 137 136 # O_W_46 H1_W_46
92 1 137 138 # O_W_46 H2_W_46

Angles

1 1 1 2 3 # H1_W_1 O_W_1 H2_W_1
2 1 4 5 6 # H1_W_2 O_W_2 H2_W_2
3 1 7 8 9 # H1_W_3 O_W_3 H2_W_3
4 1 10 11 12 # H1_W_4 O_W_4 H2_W_4
5 1 13 14 15 # H1_W_5 O_W_5 H2_W_5
6 1 16 17 18 # H1_W_6 O_W_6 H2_W_6
7 1 19 20 21 # H1_W_7 O_W_7 H2_W_7
8 1 22 23 24 # H1_W_8 O_W_8 H2_W_8
9 1 25 26 27 # H1_W_9 O_W_9 H2_W_9
10 1 28 29 30 # H1_W_10 O_W_10 H2_W_10
11 1 31 32 33 # H1_W_11 O_W_11 H2_W_11
12 1 34 35 36 # H1_W_12 O_W_12 H2_W_12
13 1 37 38 39 # H1_W_13 O_W_13 H2_W_13
14 1 40 41 42 # H1_W_14 O_W_14 H2_W_14
15 1 43 44 45 # H1_W_15 O_W_15 H2_W_15
16 1 46 47 48 # H1_W_16 O_W_16 H2_W_16
17 1 49 50 51 # H1_W_17 O_W_17 H2_W_17
18 1 52 53 54 # H1_W_18 O_W_18 H2_W_18
19 1 55 56 57 # H1_W_19 O_W_19 H2_W_19
20 1 58 59 60 # H1_W_20 O_W_20 H2_W_20
21 1 61 62 63 # H1_W_21 O_W_21 H2_W_21
22 1 64 65 66 # H1_W_22 O_W_22 H2_W_22
23 1 67 68 69 # H1_W_23 O_W_23 H2_W_23
24 1 70 71 72 # H1_W_24 O_W_24 H2_W_24
25 1 73 74 75 # H1_W_25 O_W_25 H2_W_25
26 1 76 77 78 # H1_W_26 O_W_26 H2_W_26
27 1 79 80 81 # H1_W_27 O_W_27 H2_W_27
28 1 82 83 84 # H1_W_28 O_W_28 H2_W_28
29 1 85 86 87 # H1_W_29 O_W_29 H2_W_29
30 1 88 89 90 # H1_W_30 O_W_30 H2_W_30
31 1 91 92 93 # H1_W_31 O_W_31 H2_W_31
32 1 94 95 96 # H1_W_32 O_W_32 H2_W_32
33 1 97 98 99 # H1_W_33 O_W_33 H2_W_33
34 1 100 101 102 # H1_W_34 O_W_34 H2_W_34
35 1 103 104 105 # H1_W_35 O_W_35 H2_W_35
36 1 106 107 108 # H1_W_36 O_W_36 H2_W_36
37 1 109 110 111 # H1_W_37 O_W_37 H2_W_37
38 1 112 113 114 # H1_W_38 O_W_38 H2_W_38
39 1 115 116 117 # H1_W_39 O_W_39 H2_W_39
40 1 118 119 120 # H1_W_40 O_W_40 H2_W_40
41 1 121 122 123 # H1_W_41 O_W_41 H2_W_41
42 1 124 125 126 # H1_W_42 O_W_42 H2_W_42
43 1 127 128 129 # H1_W_43 O_W_43 H2_W_43
44 1 130 131 132 # H1_W_44 O_W_44 H2_W_44
45 1 133 134 135 # H1_W_45 O_W_45 H2_W_45
46 1 136 137 138 # H1_W_46 O_W_46 H2_W_46
