ITEM: TIMESTEP
0
ITEM: NUMBER OF ATOMS
146
ITEM: BOX BOUNDS pp pp pp
-6.5707292288044261 6.5707292288044261
-6.5707292288044261 6.5707292288044261
-6.5707292288044261 6.5707292288044261
ITEM: ATOMS id mol type x y z
1 1 OW 0.0000000000000000 0.0000000000000000 3.0060699000000000
2 1 HW -0.79895996999999996 2.9370000600000001E-002 3.5324099100000002
3 1 HW -2.9349999500000001E-002 0.79944998000000000 2.4804699399999999
4 2 OW 0.0000000000000000 0.0000000000000000 9.0239296000000007
5 2 HW 0.79895996999999996 -2.9370000600000001E-002 8.4975900699999993
6 2 HW 2.9349999500000001E-002 -0.79944998000000000 9.5495300299999997
7 3 OW 0.0000000000000000 2.3207800399999998 1.4220000500000001
8 3 HW -0.78565001499999998 2.8039200300000000 1.6780600500000000
9 3 HW -1.4179999900000000E-002 2.3294999600000001 0.46494001200000001
10 4 OW 0.0000000000000000 2.3207800399999998 10.607999800000000
11 4 HW -1.6100000399999999E-003 1.5307699400000001 10.067529700000000
12 4 HW -0.78214997100000005 2.8001298900000000 10.334679599999999
13 5 OW 0.0000000000000000 9.7092199299999997 1.4220000500000001
14 5 HW 1.6100000399999999E-003 10.499230400000000 1.9624700500000001
15 5 HW 0.78214997100000005 9.2298698399999992 1.6953200100000001
16 6 OW 0.0000000000000000 9.7092199299999997 10.607999800000000
17 6 HW 0.78565001499999998 9.2260799400000000 10.351940200000000
18 6 HW 1.4179999900000000E-002 9.7004995300000001 11.565059700000001
19 7 OW 6.0149998699999996 3.0060699000000000 0.0000000000000000
20 7 HW 5.2160401299999997 3.5324099100000002 -2.9370000600000001E-002
21 7 HW 5.9856500600000002 2.4804699399999999 -0.79944998000000000
22 8 OW 6.0149998699999996 9.0239296000000007 0.0000000000000000
23 8 HW 6.8139600800000002 8.4975900699999993 2.9370000600000001E-002
24 8 HW 6.0443501499999996 9.5495300299999997 0.79944998000000000
25 9 OW 6.0149998699999996 1.4220000500000001 2.3207800399999998
26 9 HW 6.0133900599999999 1.9624700500000001 1.5307699400000001
27 9 HW 5.2328500699999996 1.6953200100000001 2.8001298900000000
28 10 OW 6.0149998699999996 10.607999800000000 2.3207800399999998
29 10 HW 5.2293500899999996 10.351940200000000 2.8039200300000000
30 10 HW 6.0008201600000000 11.565059700000001 2.3294999600000001
31 11 OW 6.0149998699999996 1.4220000500000001 9.7092199299999997
32 11 HW 6.8006501200000002 1.6780600500000000 9.2260799400000000
33 11 HW 6.0291800499999999 0.46494001200000001 9.7004995300000001
34 12 OW 6.0149998699999996 10.607999800000000 9.7092199299999997
35 12 HW 6.0166101500000000 10.067529700000000 10.499230400000000
36 12 HW 6.7971501400000003 10.334679599999999 9.2298698399999992
37 13 OW 3.6946799800000001 4.5928502099999999 0.0000000000000000
38 13 HW 3.6766700700000001 5.5494799600000002 2.7799999299999999E-002
39 13 HW 3.1957299699999999 4.3209400200000001 0.77029001699999999
40 14 OW 3.6946799800000001 7.4371499999999999 0.0000000000000000
41 14 HW 4.4854397800000001 7.9765200600000004 1.6700000299999999E-003
42 14 HW 3.1996901000000002 7.7393097900000001 -0.76152002799999996
43 15 OW 2.3203198899999999 0.0000000000000000 4.5928502099999999
44 15 HW 1.5295599700000000 1.6700000299999999E-003 4.0534801500000004
45 15 HW 2.8153100000000002 -0.76152002799999996 4.2906899500000000
46 16 OW 2.3203198899999999 0.0000000000000000 7.4371499999999999
47 16 HW 2.3383300299999998 2.7799999299999999E-002 6.4805197699999999
48 16 HW 2.8192699000000001 0.77029001699999999 7.7090601899999998
49 17 OW 2.2633700399999999 3.7126500600000001 2.2097001100000000
50 17 HW 2.7815001000000001 3.1246900599999998 2.7593100100000001
51 17 HW 1.4968800499999999 3.1958398799999999 1.9614599900000000
52 18 OW 2.2633700399999999 3.7126500600000001 9.8203001000000008
53 18 HW 2.7209799299999999 3.9940600399999999 10.612529800000001
54 18 HW 1.4953500000000000 3.2403500099999998 10.141730300000001
55 19 OW 2.2633700399999999 8.3173503899999996 2.2097001100000000
56 19 HW 2.7525799300000000 7.9864502000000002 1.4564299599999999
57 19 HW 1.9954500200000000 7.5314202300000002 2.6858999699999999
58 20 OW 2.2633700399999999 8.3173503899999996 9.8203001000000008
59 20 HW 2.8073699500000000 8.8443899199999993 9.2350397100000006
60 20 HW 2.0035600699999998 7.5627598799999998 9.2917804700000008
61 21 OW 3.7516300700000000 2.2097001100000000 3.7126500600000001
62 21 HW 3.2624299500000000 1.4564399699999999 4.0435800600000000
63 21 HW 4.0194602000000001 2.6859901000000002 4.4985499400000002
64 22 OW 3.7516300700000000 9.8203001000000008 3.7126500600000001
65 22 HW 4.0114102400000000 9.2917203900000001 4.4671998000000004
66 22 HW 3.2076199100000000 9.2350997899999996 3.1855599899999998
67 23 OW 3.7516300700000000 2.2097001100000000 8.3173503899999996
68 23 HW 4.5181198100000000 1.9614599900000000 8.8341598500000007
69 23 HW 3.2334999999999998 2.7593100100000001 8.9053096800000002
70 24 OW 3.7516300700000000 9.8203001000000008 8.3173503899999996
71 24 HW 3.2940199400000001 10.612529800000001 8.0359401699999999
72 24 HW 4.5196499799999996 10.141730300000001 8.7896499600000002
73 25 OW 8.3353204699999992 4.5928502099999999 0.0000000000000000
74 25 HW 7.5445599600000000 4.0534801500000004 -1.6700000299999999E-003
75 25 HW 8.8303098700000007 4.2906899500000000 0.76152002799999996
76 26 OW 8.3353204699999992 7.4371499999999999 0.0000000000000000
77 26 HW 8.3533296600000000 6.4805197699999999 -2.7799999299999999E-002
78 26 HW 8.8342695199999994 7.7090601899999998 -0.77029001699999999
79 27 OW 9.7096795999999994 0.0000000000000000 4.5928502099999999
80 27 HW 9.6916704199999995 -2.7799999299999999E-002 5.5494799600000002
81 27 HW 9.2107296000000005 -0.77029001699999999 4.3209400200000001
82 28 OW 9.7096795999999994 0.0000000000000000 7.4371499999999999
83 28 HW 10.500439600000000 -1.6700000299999999E-003 7.9765200600000004
84 28 HW 9.2146902100000005 0.76152002799999996 7.7393097900000001
85 29 OW 9.7666301700000009 3.7126500600000001 2.2097001100000000
86 29 HW 9.2226295500000006 3.1856100600000001 2.7949600200000000
87 29 HW 10.026439699999999 4.4672398600000003 2.7382199800000002
88 30 OW 9.7666301700000009 3.7126500600000001 9.8203001000000008
89 30 HW 9.2774200400000009 4.0435500099999997 10.573570300000000
90 30 HW 10.034549699999999 4.4985799799999997 9.3440999999999992
91 31 OW 9.7666301700000009 8.3173503899999996 2.2097001100000000
92 31 HW 9.3090200400000001 8.0359401699999999 1.4174699799999999
93 31 HW 10.534649800000000 8.7896499600000002 1.8882700200000000
94 32 OW 9.7666301700000009 8.3173503899999996 9.8203001000000008
95 32 HW 9.2484998699999998 8.9053096800000002 9.2706899600000003
96 32 HW 10.533120200000001 8.8341598500000007 10.068539599999999
97 33 OW 8.2783698999999995 2.2097001100000000 3.7126500600000001
98 33 HW 8.7359800300000003 1.4174699799999999 3.9940600399999999
99 33 HW 7.5103502300000002 1.8882700200000000 3.2403500099999998
100 34 OW 8.2783698999999995 9.8203001000000008 3.7126500600000001
101 34 HW 7.5118799200000002 10.068539599999999 3.1958398799999999
102 34 HW 8.7965002099999996 9.2706899600000003 3.1246900599999998
103 35 OW 8.2783698999999995 2.2097001100000000 8.3173503899999996
104 35 HW 8.0185899700000007 2.7382800600000001 7.5627999299999997
105 35 HW 8.8223800699999995 2.7948999400000001 8.8444404599999995
106 36 OW 8.2783698999999995 9.8203001000000008 8.3173503899999996
107 36 HW 8.7675695400000002 10.573559800000000 7.9864201499999998
108 36 HW 8.0105400099999997 9.3440103499999996 7.5314497899999999
109 37 OW 3.0060699000000000 6.0149998699999996 6.0149998699999996
110 37 HW 3.5324099100000002 6.8139600800000002 5.9856300400000002
111 37 HW 2.4804699399999999 6.0443501499999996 5.2155499499999998
112 38 OW 9.0239296000000007 6.0149998699999996 6.0149998699999996
113 38 HW 8.4975900699999993 5.2160401299999997 6.0443701699999997
114 38 HW 9.5495300299999997 5.9856500600000002 6.8144497900000003
115 39 OW 1.4220000500000001 6.0149998699999996 8.3357801400000007
116 39 HW 1.7068500499999999 5.2447400100000001 8.8275098799999991
117 39 HW 1.9642499700000000 6.0102100399999996 7.5469999300000001
118 40 OW 10.607999800000000 6.0149998699999996 8.3357801400000007
119 40 HW 10.347430200000000 6.7890901599999998 8.8348998999999999
120 40 HW 11.564959500000001 6.0329198799999997 8.3473396300000005
121 41 OW 1.4220000500000001 6.0149998699999996 3.6942200700000001
122 41 HW 1.6825699800000000 5.2409100500000001 3.1951000700000001
123 41 HW 0.46503999800000001 5.9970798500000004 3.6826601000000001
124 42 OW 10.607999800000000 6.0149998699999996 3.6942200700000001
125 42 HW 10.323149700000000 6.7852601999999997 3.2024900900000000
126 42 HW 10.065750100000001 6.0197901700000003 4.4829998000000000
127 43 OW 4.5928502099999999 3.6946799800000001 6.0149998699999996
128 43 HW 4.0499701500000000 4.4830298400000004 6.0196499799999996
129 43 HW 4.3081798600000001 3.2027099099999998 6.7851700800000003
130 44 OW 7.4371499999999999 3.6946799800000001 6.0149998699999996
131 44 HW 6.4801897999999998 3.6831400400000001 5.9971098899999999
132 44 HW 7.6976900099999996 3.1954500700000001 5.2409701300000000
133 45 OW 4.5928502099999999 8.3353204699999992 6.0149998699999996
134 45 HW 5.5498099300000003 8.3468599300000008 6.0328898400000002
135 45 HW 4.3323102000000002 8.8345499000000007 6.7890300799999999
136 46 OW 7.4371499999999999 8.3353204699999992 6.0149998699999996
137 46 HW 7.9800300599999998 7.5469698899999997 6.0103502300000002
138 46 HW 7.7218198800000000 8.8272895800000004 5.2448301300000004
139 47 CH4 0.0000000000000000 6.0149999999999997 0.0000000000000000
140 48 CH4 6.0149999999999997 0.0000000000000000 6.0149999999999997
141 49 CH4 3.0080000000000000 0.0000000000000000 0.0000000000000000
142 50 CH4 9.0229999999999997 0.0000000000000000 0.0000000000000000
143 51 CH4 0.0000000000000000 2.9920000000000000 6.0149999999999997
144 52 CH4 0.0000000000000000 9.0380000000000003 6.0149999999999997
145 53 CH4 6.0149999999999997 6.0149999999999997 2.9920000000000000
146 54 CH4 6.0149999999999997 6.0149999999999997 9.0380000000000003
