ITEM: TIMESTEP
0
ITEM: NUMBER OF ATOMS
2500
ITEM: BOX BOUNDS pp pp pp
-23.195419079151076 23.195419079151076
-23.195419079151076 23.195419079151076
-23.195419079151076 23.195419079151076
ITEM: ATOMS id mol type x y z
1 1 CH3 -2.305148 -12.178081 -13.246785
2 1 CH2 -1.013595 -13.016825 -13.246785
3 1 CH2 0.277957 -12.178081 -13.246785
4 1 CH2 1.569510 -13.016825 -13.246785
5 1 CH3 2.861063 -12.178081 -13.246785
6 2 CH3 -12.340565 -2.292958 -2.765273
7 2 CH2 -11.049012 -3.131702 -2.765273
8 2 CH2 -9.757460 -2.292958 -2.765273
9 2 CH2 -8.465907 -3.131702 -2.765273
10 2 CH3 -7.174354 -2.292958 -2.765273
11 3 CH3 3.531352 17.002942 3.661813
12 3 CH2 4.822905 16.164198 3.661813
13 3 CH2 6.114458 17.002942 3.661813
14 3 CH2 7.406010 16.164198 3.661813
15 3 CH3 8.697563 17.002942 3.661813
16 4 CH3 -12.213236 -1.638630 3.598665
17 4 CH2 -10.921683 -2.477374 3.598665
18 4 CH2 -9.630130 -1.638630 3.598665
19 4 CH2 -8.338578 -2.477374 3.598665
20 4 CH3 -7.047025 -1.638630 3.598665
21 5 CH3 -21.240420 6.877693 16.934823
22 5 CH2 -19.948867 6.038948 16.934823
23 5 CH2 -18.657315 6.877693 16.934823
24 5 CH2 -17.365762 6.038948 16.934823
25 5 CH3 -16.074209 6.877693 16.934823
26 6 CH3 -11.283462 17.080893 9.302260
27 6 CH2 -9.991910 16.242149 9.302260
28 6 CH2 -8.700357 17.080893 9.302260
29 6 CH2 -7.408804 16.242149 9.302260
30 6 CH3 -6.117252 17.080893 9.302260
31 7 CH3 5.468640 -20.402590 5.917762
32 7 CH2 6.760193 -21.241334 5.917762
33 7 CH2 8.051745 -20.402590 5.917762
34 7 CH2 9.343298 -21.241334 5.917762
35 7 CH3 10.634851 -20.402590 5.917762
36 8 CH3 -0.574531 12.419523 6.140286
37 8 CH2 0.717022 11.580779 6.140286
38 8 CH2 2.008575 12.419523 6.140286
39 8 CH2 3.300128 11.580779 6.140286
40 8 CH3 4.591680 12.419523 6.140286
41 9 CH3 16.061354 -20.401861 9.405646
42 9 CH2 17.352907 -21.240605 9.405646
43 9 CH2 18.644460 -20.401861 9.405646
44 9 CH2 19.936012 -21.240605 9.405646
45 9 CH3 21.227565 -20.401861 9.405646
46 10 CH3 9.124094 7.013006 13.634183
47 10 CH2 10.415647 6.174262 13.634183
48 10 CH2 11.707200 7.013006 13.634183
49 10 CH2 12.998752 6.174262 13.634183
50 10 CH3 14.290305 7.013006 13.634183
51 11 CH3 -21.240419 7.090469 -12.451041
52 11 CH2 -19.948866 6.251725 -12.451041
53 11 CH2 -18.657314 7.090469 -12.451041
54 11 CH2 -17.365761 6.251725 -12.451041
55 11 CH3 -16.074208 7.090469 -12.451041
56 12 CH3 16.080920 -3.584767 13.277013
57 12 CH2 17.372473 -4.423511 13.277013
58 12 CH2 18.664026 -3.584767 13.277013
59 12 CH2 19.955578 -4.423511 13.277013
60 12 CH3 21.247131 -3.584767 13.277013
61 13 CH3 6.295277 4.127340 5.101632
62 13 CH2 7.586829 3.288596 5.101632
63 13 CH2 8.878382 4.127340 5.101632
64 13 CH2 10.169935 3.288596 5.101632
65 13 CH3 11.461487 4.127340 5.101632
66 14 CH3 -10.705824 0.313725 -15.606118
67 14 CH2 -9.414271 -0.525019 -15.606118
68 14 CH2 -8.122719 0.313725 -15.606118
69 14 CH2 -6.831166 -0.525019 -15.606118
70 14 CH3 -5.539613 0.313725 -15.606118
71 15 CH3 10.763875 21.240419 -17.226768
72 15 CH2 12.055428 20.401675 -17.226768
73 15 CH2 13.346980 21.240419 -17.226768
74 15 CH2 14.638533 20.401675 -17.226768
75 15 CH3 15.930086 21.240419 -17.226768
76 16 CH3 -12.165718 3.946087 9.343405
77 16 CH2 -10.874166 3.107343 9.343405
78 16 CH2 -9.582613 3.946087 9.343405
79 16 CH2 -8.291060 3.107343 9.343405
80 16 CH3 -6.999508 3.946087 9.343405
81 17 CH3 -6.032351 -13.617449 14.138492
82 17 CH2 -4.740798 -14.456193 14.138492
83 17 CH2 -3.449245 -13.617449 14.138492
84 17 CH2 -2.157693 -14.456193 14.138492
85 17 CH3 -0.866140 -13.617449 14.138492
86 18 CH3 7.208502 -5.423178 21.242947
87 18 CH2 8.500054 -6.261922 21.242947
88 18 CH2 9.791607 -5.423178 21.242947
89 18 CH2 11.083160 -6.261922 21.242947
90 18 CH3 12.374712 -5.423178 21.242947
91 19 CH3 -21.240419 16.455952 -21.240419
92 19 CH2 -19.948866 15.617208 -21.240419
93 19 CH2 -18.657314 16.455952 -21.240419
94 19 CH2 -17.365761 15.617208 -21.240419
95 19 CH3 -16.074208 16.455952 -21.240419
96 20 CH3 -3.161463 2.238478 -3.288174
97 20 CH2 -1.869910 1.399734 -3.288174
98 20 CH2 -0.578358 2.238478 -3.288174
99 20 CH2 0.713195 1.399734 -3.288174
100 20 CH3 2.004748 2.238478 -3.288174
101 21 CH3 -12.181118 -4.185307 -8.701135
102 21 CH2 -10.889566 -5.024051 -8.701135
103 21 CH2 -9.598013 -4.185307 -8.701135
104 21 CH2 -8.306460 -5.024051 -8.701135
105 21 CH3 -7.014908 -4.185307 -8.701135
106 22 CH3 16.074366 0.200296 -3.680862
107 22 CH2 17.365918 -0.638448 -3.680862
108 22 CH2 18.657471 0.200296 -3.680862
109 22 CH2 19.949024 -0.638448 -3.680862
110 22 CH3 21.240576 0.200296 -3.680862
111 23 CH3 -4.196275 15.269920 -7.189577
112 23 CH2 -2.904722 14.431176 -7.189577
113 23 CH2 -1.613169 15.269920 -7.189577
114 23 CH2 -0.321617 14.431176 -7.189577
115 23 CH3 0.969936 15.269920 -7.189577
116 24 CH3 -14.276191 14.881225 5.843598
117 24 CH2 -12.984638 14.042481 5.843598
118 24 CH2 -11.693085 14.881225 5.843598
119 24 CH2 -10.401533 14.042481 5.843598
120 24 CH3 -9.109980 14.881225 5.843598
121 25 CH3 7.448300 -0.670060 15.005143
122 25 CH2 8.739852 -1.508805 15.005143
123 25 CH2 10.031405 -0.670060 15.005143
124 25 CH2 11.322958 -1.508805 15.005143
125 25 CH3 12.614510 -0.670060 15.005143
126 26 CH3 -2.753074 -8.243394 -1.777750
127 26 CH2 -1.461521 -9.082138 -1.777750
128 26 CH2 -0.169969 -8.243394 -1.777750
129 26 CH2 1.121584 -9.082138 -1.777750
130 26 CH3 2.413137 -8.243394 -1.777750
131 27 CH3 -2.019078 -13.492220 -21.240419
132 27 CH2 -0.727525 -14.330964 -21.240419
133 27 CH2 0.564027 -13.492220 -21.240419
134 27 CH2 1.855580 -14.330964 -21.240419
135 27 CH3 3.147133 -13.492220 -21.240419
136 28 CH3 7.375320 9.820393 17.407238
137 28 CH2 8.666872 8.981649 17.407238
138 28 CH2 9.958425 9.820393 17.407238
139 28 CH2 11.249978 8.981649 17.407238
140 28 CH3 12.541530 9.820393 17.407238
141 29 CH3 7.347821 -5.002535 14.021648
142 29 CH2 8.639373 -5.841279 14.021648
143 29 CH2 9.930926 -5.002535 14.021648
144 29 CH2 11.222479 -5.841279 14.021648
145 29 CH3 12.514031 -5.002535 14.021648
146 30 CH3 7.274197 -17.072708 -12.030224
147 30 CH2 8.565750 -17.911452 -12.030224
148 30 CH2 9.857303 -17.072708 -12.030224
149 30 CH2 11.148855 -17.911452 -12.030224
150 30 CH3 12.440408 -17.072708 -12.030224
151 31 CH3 -12.416937 -9.896642 14.155788
152 31 CH2 -11.125384 -10.735386 14.155788
153 31 CH2 -9.833831 -9.896642 14.155788
154 31 CH2 -8.542279 -10.735386 14.155788
155 31 CH3 -7.250726 -9.896642 14.155788
156 32 CH3 7.414006 21.240419 -13.102892
157 32 CH2 8.705559 20.401675 -13.102892
158 32 CH2 9.997111 21.240419 -13.102892
159 32 CH2 11.288664 20.401675 -13.102892
160 32 CH3 12.580217 21.240419 -13.102892
161 33 CH3 16.074208 20.908949 16.050496
162 33 CH2 17.365761 20.070205 16.050496
163 33 CH2 18.657314 20.908949 16.050496
164 33 CH2 19.948866 20.070205 16.050496
165 33 CH3 21.240419 20.908949 16.050496
166 34 CH3 6.180667 -10.598524 -17.455050
167 34 CH2 7.472220 -11.437268 -17.455050
168 34 CH2 8.763772 -10.598524 -17.455050
169 34 CH2 10.055325 -11.437268 -17.455050
170 34 CH3 11.346878 -10.598524 -17.455050
171 35 CH3 9.637264 8.901154 10.044651
172 35 CH2 10.928817 8.062410 10.044651
173 35 CH2 12.220370 8.901154 10.044651
174 35 CH2 13.511922 8.062410 10.044651
175 35 CH3 14.803475 8.901154 10.044651
176 36 CH3 -3.271779 21.240419 -15.692491
177 36 CH2 -1.980227 20.401675 -15.692491
178 36 CH2 -0.688674 21.240419 -15.692491
179 36 CH2 0.602879 20.401675 -15.692491
180 36 CH3 1.894431 21.240419 -15.692491
181 37 CH3 -19.633170 2.273230 17.493195
182 37 CH2 -18.341617 1.434486 17.493195
183 37 CH2 -17.050065 2.273230 17.493195
184 37 CH2 -15.758512 1.434486 17.493195
185 37 CH3 -14.466959 2.273230 17.493195
186 38 CH3 -14.367434 5.288062 3.176970
187 38 CH2 -13.075882 4.449317 3.176970
188 38 CH2 -11.784329 5.288062 3.176970
189 38 CH2 -10.492776 4.449317 3.176970
190 38 CH3 -9.201224 5.288062 3.176970
191 39 CH3 15.762962 -1.600058 9.765436
192 39 CH2 17.054515 -2.438803 9.765436
193 39 CH2 18.346068 -1.600058 9.765436
194 39 CH2 19.637620 -2.438803 9.765436
195 39 CH3 20.929173 -1.600058 9.765436
196 40 CH3 6.760045 -5.839008 -15.858053
197 40 CH2 8.051598 -6.677752 -15.858053
198 40 CH2 9.343150 -5.839008 -15.858053
199 40 CH2 10.634703 -6.677752 -15.858053
200 40 CH3 11.926256 -5.839008 -15.858053
201 41 CH3 16.074208 -18.080023 -17.571072
202 41 CH2 17.365761 -18.918767 -17.571072
203 41 CH2 18.657314 -18.080023 -17.571072
204 41 CH2 19.948866 -18.918767 -17.571072
205 41 CH3 21.240419 -18.080023 -17.571072
206 42 CH3 -3.225696 0.967298 -20.305792
207 42 CH2 -1.934144 0.128554 -20.305792
208 42 CH2 -0.642591 0.967298 -20.305792
209 42 CH2 0.648962 0.128554 -20.305792
210 42 CH3 1.940514 0.967298 -20.305792
211 43 CH3 -11.936647 21.240419 -13.210270
212 43 CH2 -10.645094 20.401675 -13.210270
213 43 CH2 -9.353541 21.240419 -13.210270
214 43 CH2 -8.061989 20.401675 -13.210270
215 43 CH3 -6.770436 21.240419 -13.210270
216 44 CH3 -21.239300 -8.176346 -20.474384
217 44 CH2 -19.947748 -9.015090 -20.474384
218 44 CH2 -18.656195 -8.176346 -20.474384
219 44 CH2 -17.364642 -9.015090 -20.474384
220 44 CH3 -16.073090 -8.176346 -20.474384
221 45 CH3 -12.347235 12.078579 18.152384
222 45 CH2 -11.055683 11.239835 18.152384
223 45 CH2 -9.764130 12.078579 18.152384
224 45 CH2 -8.472577 11.239835 18.152384
225 45 CH3 -7.181025 12.078579 18.152384
226 46 CH3 -21.240578 -6.743791 -11.022049
227 46 CH2 -19.949026 -7.582535 -11.022049
228 46 CH2 -18.657473 -6.743791 -11.022049
229 46 CH2 -17.365920 -7.582535 -11.022049
230 46 CH3 -16.074368 -6.743791 -11.022049
231 47 CH3 -14.999940 -5.490830 14.602237
232 47 CH2 -13.708388 -6.329574 14.602237
233 47 CH2 -12.416835 -5.490830 14.602237
234 47 CH2 -11.125282 -6.329574 14.602237
235 47 CH3 -9.833730 -5.490830 14.602237
236 48 CH3 7.427828 14.445985 17.116112
237 48 CH2 8.719381 13.607241 17.116112
238 48 CH2 10.010934 14.445985 17.116112
239 48 CH2 11.302486 13.607241 17.116112
240 48 CH3 12.594039 14.445985 17.116112
241 49 CH3 -21.186148 11.529493 21.237060
242 49 CH2 -19.894595 10.690749 21.237060
243 49 CH2 -18.603042 11.529493 21.237060
244 49 CH2 -17.311490 10.690749 21.237060
245 49 CH3 -16.019937 11.529493 21.237060
246 50 CH3 16.074208 -7.951237 17.373652
247 50 CH2 17.365761 -8.789981 17.373652
248 50 CH2 18.657314 -7.951237 17.373652
249 50 CH2 19.948866 -8.789981 17.373652
250 50 CH3 21.240419 -7.951237 17.373652
251 51 CH3 16.074208 5.079112 -21.240419
252 51 CH2 17.365761 4.240368 -21.240419
253 51 CH2 18.657314 5.079112 -21.240419
254 51 CH2 19.948866 4.240368 -21.240419
255 51 CH3 21.240419 5.079112 -21.240419
256 52 CH3 -20.887362 1.826297 -6.815899
257 52 CH2 -19.595809 0.987552 -6.815899
258 52 CH2 -18.304256 1.826297 -6.815899
259 52 CH2 -17.012704 0.987552 -6.815899
260 52 CH3 -15.721151 1.826297 -6.815899
261 53 CH3 -12.475075 0.778945 -21.240428
262 53 CH2 -11.183522 -0.059799 -21.240428
263 53 CH2 -9.891969 0.778945 -21.240428
264 53 CH2 -8.600417 -0.059799 -21.240428
265 53 CH3 -7.308864 0.778945 -21.240428
266 54 CH3 -21.240419 21.240419 -21.207203
267 54 CH2 -19.948866 20.401675 -21.207203
268 54 CH2 -18.657314 21.240419 -21.207203
269 54 CH2 -17.365761 20.401675 -21.207203
270 54 CH3 -16.074208 21.240419 -21.207203
271 55 CH3 -13.377875 19.582435 21.227203
272 55 CH2 -12.086323 18.743691 21.227203
273 55 CH2 -10.794770 19.582435 21.227203
274 55 CH2 -9.503217 18.743691 21.227203
275 55 CH3 -8.211665 19.582435 21.227203
276 56 CH3 -21.240419 1.534716 1.659259
277 56 CH2 -19.948866 0.695972 1.659259
278 56 CH2 -18.657314 1.534716 1.659259
279 56 CH2 -17.365761 0.695972 1.659259
280 56 CH3 -16.074208 1.534716 1.659259
281 57 CH3 16.074208 15.709530 -10.484031
282 57 CH2 17.365761 14.870785 -10.484031
283 57 CH2 18.657314 15.709530 -10.484031
284 57 CH2 19.948866 14.870785 -10.484031
285 57 CH3 21.240419 15.709530 -10.484031
286 58 CH3 -21.199165 -11.468303 -1.039797
287 58 CH2 -19.907613 -12.307047 -1.039797
288 58 CH2 -18.616060 -11.468303 -1.039797
289 58 CH2 -17.324507 -12.307047 -1.039797
290 58 CH3 -16.032955 -11.468303 -1.039797
291 59 CH3 -4.105537 -20.402715 -0.672291
292 59 CH2 -2.813985 -21.241460 -0.672291
293 59 CH2 -1.522432 -20.402715 -0.672291
294 59 CH2 -0.230879 -21.241460 -0.672291
295 59 CH3 1.060673 -20.402715 -0.672291
296 60 CH3 -21.240419 19.027224 -5.880571
297 60 CH2 -19.948866 18.188479 -5.880571
298 60 CH2 -18.657314 19.027224 -5.880571
299 60 CH2 -17.365761 18.188479 -5.880571
300 60 CH3 -16.074208 19.027224 -5.880571
301 61 CH3 -12.351025 -17.961743 -9.928171
302 61 CH2 -11.059472 -18.800488 -9.928171
303 61 CH2 -9.767920 -17.961743 -9.928171
304 61 CH2 -8.476367 -18.800488 -9.928171
305 61 CH3 -7.184814 -17.961743 -9.928171
306 62 CH3 -2.521416 -20.402973 -4.838332
307 62 CH2 -1.229864 -21.241717 -4.838332
308 62 CH2 0.061689 -20.402973 -4.838332
309 62 CH2 1.353242 -21.241717 -4.838332
310 62 CH3 2.644794 -20.402973 -4.838332
311 63 CH3 16.074555 -20.402097 13.424108
312 63 CH2 17.366108 -21.240841 13.424108
313 63 CH2 18.657661 -20.402097 13.424108
314 63 CH2 19.949213 -21.240841 13.424108
315 63 CH3 21.240766 -20.402097 13.424108
316 64 CH3 -20.657432 -3.280931 -21.165409
317 64 CH2 -19.365880 -4.119675 -21.165409
318 64 CH2 -18.074327 -3.280931 -21.165409
319 64 CH2 -16.782774 -4.119675 -21.165409
320 64 CH3 -15.491222 -3.280931 -21.165409
321 65 CH3 -3.047653 -1.429889 7.153060
322 65 CH2 -1.756101 -2.268633 7.153060
323 65 CH2 -0.464548 -1.429889 7.153060
324 65 CH2 0.827005 -2.268633 7.153060
325 65 CH3 2.118557 -1.429889 7.153060
326 66 CH3 14.617640 21.240419 -5.676292
327 66 CH2 15.909193 20.401675 -5.676292
328 66 CH2 17.200745 21.240419 -5.676292
329 66 CH2 18.492298 20.401675 -5.676292
330 66 CH3 19.783851 21.240419 -5.676292
331 67 CH3 8.574843 12.050364 7.011302
332 67 CH2 9.866395 11.211620 7.011302
333 67 CH2 11.157948 12.050364 7.011302
334 67 CH2 12.449501 11.211620 7.011302
335 67 CH3 13.741053 12.050364 7.011302
336 68 CH3 -21.240419 -20.401675 -18.235947
337 68 CH2 -19.948866 -21.240419 -18.235947
338 68 CH2 -18.657314 -20.401675 -18.235947
339 68 CH2 -17.365761 -21.240419 -18.235947
340 68 CH3 -16.074208 -20.401675 -18.235947
341 69 CH3 16.074208 21.117019 11.292959
342 69 CH2 17.365761 20.278275 11.292959
343 69 CH2 18.657314 21.117019 11.292959
344 69 CH2 19.948866 20.278275 11.292959
345 69 CH3 21.240419 21.117019 11.292959
346 70 CH3 -21.241961 11.435278 13.427163
347 70 CH2 -19.950409 10.596534 13.427163
348 70 CH2 -18.658856 11.435278 13.427163
349 70 CH2 -17.367303 10.596534 13.427163
350 70 CH3 -16.075751 11.435278 13.427163
351 71 CH3 -12.801914 20.791923 15.338024
352 71 CH2 -11.510361 19.953179 15.338024
353 71 CH2 -10.218808 20.791923 15.338024
354 71 CH2 -8.927256 19.953179 15.338024
355 71 CH3 -7.635703 20.791923 15.338024
356 72 CH3 -12.385571 3.792767 -18.339324
357 72 CH2 -11.094019 2.954023 -18.339324
358 72 CH2 -9.802466 3.792767 -18.339324
359 72 CH2 -8.510913 2.954023 -18.339324
360 72 CH3 -7.219361 3.792767 -18.339324
361 73 CH3 7.102878 -1.729387 -18.574009
362 73 CH2 8.394431 -2.568131 -18.574009
363 73 CH2 9.685983 -1.729387 -18.574009
364 73 CH2 10.977536 -2.568131 -18.574009
365 73 CH3 12.269089 -1.729387 -18.574009
366 74 CH3 -10.023482 -20.401675 -17.528103
367 74 CH2 -8.731929 -21.240419 -17.528103
368 74 CH2 -7.440376 -20.401675 -17.528103
369 74 CH2 -6.148824 -21.240419 -17.528103
370 74 CH3 -4.857271 -20.401675 -17.528103
371 75 CH3 -9.757776 11.887549 -20.312108
372 75 CH2 -8.466223 11.048805 -20.312108
373 75 CH2 -7.174671 11.887549 -20.312108
374 75 CH2 -5.883118 11.048805 -20.312108
375 75 CH3 -4.591565 11.887549 -20.312108
376 76 CH3 16.074208 -4.344524 -21.240419
377 76 CH2 17.365761 -5.183269 -21.240419
378 76 CH2 18.657314 -4.344524 -21.240419
379 76 CH2 19.948866 -5.183269 -21.240419
380 76 CH3 21.240419 -4.344524 -21.240419
381 77 CH3 6.577037 3.691481 -1.996169
382 77 CH2 7.868589 2.852737 -1.996169
383 77 CH2 9.160142 3.691481 -1.996169
384 77 CH2 10.451695 2.852737 -1.996169
385 77 CH3 11.743247 3.691481 -1.996169
386 78 CH3 -10.577584 -6.315502 -21.240455
387 78 CH2 -9.286032 -7.154246 -21.240455
388 78 CH2 -7.994479 -6.315502 -21.240455
389 78 CH2 -6.702926 -7.154246 -21.240455
390 78 CH3 -5.411374 -6.315502 -21.240455
391 79 CH3 -3.528722 -1.320264 -5.806117
392 79 CH2 -2.237169 -2.159008 -5.806117
393 79 CH2 -0.945616 -1.320264 -5.806117
394 79 CH2 0.345937 -2.159008 -5.806117
395 79 CH3 1.637489 -1.320264 -5.806117
396 80 CH3 -17.956419 -16.482582 17.168958
397 80 CH2 -16.664867 -17.321326 17.168958
398 80 CH2 -15.373314 -16.482582 17.168958
399 80 CH2 -14.081761 -17.321326 17.168958
400 80 CH3 -12.790209 -16.482582 17.168958
401 81 CH3 -2.181997 12.139731 21.160057
402 81 CH2 -0.890444 11.300987 21.160057
403 81 CH2 0.401109 12.139731 21.160057
404 81 CH2 1.692661 11.300987 21.160057
405 81 CH3 2.984214 12.139731 21.160057
406 82 CH3 16.074291 -10.526895 9.440613
407 82 CH2 17.365844 -11.365639 9.440613
408 82 CH2 18.657397 -10.526895 9.440613
409 82 CH2 19.948949 -11.365639 9.440613
410 82 CH3 21.240502 -10.526895 9.440613
411 83 CH3 -21.151447 3.632881 -15.574195
412 83 CH2 -19.859894 2.794137 -15.574195
413 83 CH2 -18.568342 3.632881 -15.574195
414 83 CH2 -17.276789 2.794137 -15.574195
415 83 CH3 -15.985236 3.632881 -15.574195
416 84 CH3 16.074208 -7.318873 -17.401152
417 84 CH2 17.365761 -8.157617 -17.401152
418 84 CH2 18.657314 -7.318873 -17.401152
419 84 CH2 19.948866 -8.157617 -17.401152
420 84 CH3 21.240419 -7.318873 -17.401152
421 85 CH3 -12.773604 -5.064275 6.312473
422 85 CH2 -11.482051 -5.903019 6.312473
423 85 CH2 -10.190499 -5.064275 6.312473
424 85 CH2 -8.898946 -5.903019 6.312473
425 85 CH3 -7.607393 -5.064275 6.312473
426 86 CH3 -4.171291 -6.398333 17.550375
427 86 CH2 -2.879739 -7.237077 17.550375
428 86 CH2 -1.588186 -6.398333 17.550375
429 86 CH2 -0.296633 -7.237077 17.550375
430 86 CH3 0.994919 -6.398333 17.550375
431 87 CH3 -3.351019 -16.401489 -2.746475
432 87 CH2 -2.059466 -17.240233 -2.746475
433 87 CH2 -0.767914 -16.401489 -2.746475
434 87 CH2 0.523639 -17.240233 -2.746475
435 87 CH3 1.815192 -16.401489 -2.746475
436 88 CH3 -21.240419 -11.620769 -17.352110
437 88 CH2 -19.948866 -12.459513 -17.352110
438 88 CH2 -18.657314 -11.620769 -17.352110
439 88 CH2 -17.365761 -12.459513 -17.352110
440 88 CH3 -16.074208 -11.620769 -17.352110
441 89 CH3 16.074210 -20.401727 -4.140482
442 89 CH2 17.365762 -21.240471 -4.140482
443 89 CH2 18.657315 -20.401727 -4.140482
444 89 CH2 19.948868 -21.240471 -4.140482
445 89 CH3 21.240420 -20.401727 -4.140482
446 90 CH3 14.234858 -11.368878 -9.956258
447 90 CH2 15.526411 -12.207622 -9.956258
448 90 CH2 16.817963 -11.368878 -9.956258
449 90 CH2 18.109516 -12.207622 -9.956258
450 90 CH3 19.401069 -11.368878 -9.956258
451 91 CH3 10.935000 -16.392171 15.324556
452 91 CH2 12.226552 -17.230915 15.324556
453 91 CH2 13.518105 -16.392171 15.324556
454 91 CH2 14.809658 -17.230915 15.324556
455 91 CH3 16.101211 -16.392171 15.324556
456 92 CH3 16.074192 -3.251042 17.172892
457 92 CH2 17.365744 -4.089786 17.172892
458 92 CH2 18.657297 -3.251042 17.172892
459 92 CH2 19.948850 -4.089786 17.172892
460 92 CH3 21.240402 -3.251042 17.172892
461 93 CH3 7.485490 -1.061422 -1.589466
462 93 CH2 8.777042 -1.900167 -1.589466
463 93 CH2 10.068595 -1.061422 -1.589466
464 93 CH2 11.360148 -1.900167 -1.589466
465 93 CH3 12.651700 -1.061422 -1.589466
466 94 CH3 -3.527300 -9.387132 -7.341891
467 94 CH2 -2.235747 -10.225876 -7.341891
468 94 CH2 -0.944195 -9.387132 -7.341891
469 94 CH2 0.347358 -10.225876 -7.341891
470 94 CH3 1.638911 -9.387132 -7.341891
471 95 CH3 7.367885 -16.228548 -7.749977
472 95 CH2 8.659438 -17.067292 -7.749977
473 95 CH2 9.950990 -16.228548 -7.749977
474 95 CH2 11.242543 -17.067292 -7.749977
475 95 CH3 12.534096 -16.228548 -7.749977
476 96 CH3 -19.038653 11.216137 -21.240419
477 96 CH2 -17.747100 10.377393 -21.240419
478 96 CH2 -16.455548 11.216137 -21.240419
479 96 CH2 -15.163995 10.377393 -21.240419
480 96 CH3 -13.872442 11.216137 -21.240419
481 97 CH3 16.024695 -20.303726 21.240519
482 97 CH2 17.316247 -21.142470 21.240519
483 97 CH2 18.607800 -20.303726 21.240519
484 97 CH2 19.899353 -21.142470 21.240519
485 97 CH3 21.190905 -20.303726 21.240519
486 98 CH3 9.961732 -6.423225 10.463419
487 98 CH2 11.253285 -7.261970 10.463419
488 98 CH2 12.544838 -6.423225 10.463419
489 98 CH2 13.836390 -7.261970 10.463419
490 98 CH3 15.127943 -6.423225 10.463419
491 99 CH3 -3.703490 16.339949 -3.461268
492 99 CH2 -2.411937 15.501205 -3.461268
493 99 CH2 -1.120385 16.339949 -3.461268
494 99 CH2 0.171168 15.501205 -3.461268
495 99 CH3 1.462721 16.339949 -3.461268
496 100 CH3 16.074219 -12.892328 1.751388
497 100 CH2 17.365771 -13.731072 1.751388
498 100 CH2 18.657324 -12.892328 1.751388
499 100 CH2 19.948877 -13.731072 1.751388
500 100 CH3 21.240429 -12.892328 1.751388
501 101 CH3 -21.240601 21.178347 -2.448748
502 101 CH2 -19.949048 20.339603 -2.448748
503 101 CH2 -18.657496 21.178347 -2.448748
504 101 CH2 -17.365943 20.339603 -2.448748
505 101 CH3 -16.074390 21.178347 -2.448748
506 102 CH3 16.074446 -2.477173 4.691349
507 102 CH2 17.365999 -3.315917 4.691349
508 102 CH2 18.657552 -2.477173 4.691349
509 102 CH2 19.949104 -3.315917 4.691349
510 102 CH3 21.240657 -2.477173 4.691349
511 103 CH3 -12.336706 9.797149 2.418968
512 103 CH2 -11.045154 8.958405 2.418968
513 103 CH2 -9.753601 9.797149 2.418968
514 103 CH2 -8.462048 8.958405 2.418968
515 103 CH3 -7.170496 9.797149 2.418968
516 104 CH3 -14.746992 -13.020440 -9.404109
517 104 CH2 -13.455439 -13.859185 -9.404109
518 104 CH2 -12.163886 -13.020440 -9.404109
519 104 CH2 -10.872334 -13.859185 -9.404109
520 104 CH3 -9.580781 -13.020440 -9.404109
521 105 CH3 -12.614806 -5.988633 -12.680128
522 105 CH2 -11.323253 -6.827377 -12.680128
523 105 CH2 -10.031700 -5.988633 -12.680128
524 105 CH2 -8.740148 -6.827377 -12.680128
525 105 CH3 -7.448595 -5.988633 -12.680128
526 106 CH3 -10.200621 16.597868 -17.750221
527 106 CH2 -8.909068 15.759124 -17.750221
528 106 CH2 -7.617516 16.597868 -17.750221
529 106 CH2 -6.325963 15.759124 -17.750221
530 106 CH3 -5.034410 16.597868 -17.750221
531 107 CH3 16.074208 21.240419 -9.784914
532 107 CH2 17.365761 20.401675 -9.784914
533 107 CH2 18.657314 21.240419 -9.784914
534 107 CH2 19.948866 20.401675 -9.784914
535 107 CH3 21.240419 21.240419 -9.784914
536 108 CH3 16.074208 6.288126 -9.980812
537 108 CH2 17.365761 5.449382 -9.980812
538 108 CH2 18.657314 6.288126 -9.980812
539 108 CH2 19.948866 5.449382 -9.980812
540 108 CH3 21.240419 6.288126 -9.980812
541 109 CH3 -12.350840 9.398239 21.241370
542 109 CH2 -11.059287 8.559494 21.241370
543 109 CH2 -9.767735 9.398239 21.241370
544 109 CH2 -8.476182 8.559494 21.241370
545 109 CH3 -7.184629 9.398239 21.241370
546 110 CH3 -21.240419 1.621278 -19.586576
547 110 CH2 -19.948866 0.782534 -19.586576
548 110 CH2 -18.657314 1.621278 -19.586576
549 110 CH2 -17.365761 0.782534 -19.586576
550 110 CH3 -16.074208 1.621278 -19.586576
551 111 CH3 -3.176278 -16.797720 -15.341766
552 111 CH2 -1.884726 -17.636464 -15.341766
553 111 CH2 -0.593173 -16.797720 -15.341766
554 111 CH2 0.698380 -17.636464 -15.341766
555 111 CH3 1.989932 -16.797720 -15.341766
556 112 CH3 -1.678949 15.258915 -14.643560
557 112 CH2 -0.387397 14.420171 -14.643560
558 112 CH2 0.904156 15.258915 -14.643560
559 112 CH2 2.195709 14.420171 -14.643560
560 112 CH3 3.487262 15.258915 -14.643560
561 113 CH3 7.279292 -5.186823 0.026908
562 113 CH2 8.570845 -6.025567 0.026908
563 113 CH2 9.862398 -5.186823 0.026908
564 113 CH2 11.153950 -6.025567 0.026908
565 113 CH3 12.445503 -5.186823 0.026908
566 114 CH3 5.720355 21.114693 5.672751
567 114 CH2 7.011908 20.275949 5.672751
568 114 CH2 8.303461 21.114693 5.672751
569 114 CH2 9.595013 20.275949 5.672751
570 114 CH3 10.886566 21.114693 5.672751
571 115 CH3 7.457421 21.240023 14.122915
572 115 CH2 8.748974 20.401278 14.122915
573 115 CH2 10.040526 21.240023 14.122915
574 115 CH2 11.332079 20.401278 14.122915
575 115 CH3 12.623632 21.240023 14.122915
576 116 CH3 -21.240419 11.619572 -14.003461
577 116 CH2 -19.948866 10.780828 -14.003461
578 116 CH2 -18.657314 11.619572 -14.003461
579 116 CH2 -17.365761 10.780828 -14.003461
580 116 CH3 -16.074208 11.619572 -14.003461
581 117 CH3 16.074208 -3.070068 -6.616388
582 117 CH2 17.365761 -3.908813 -6.616388
583 117 CH2 18.657314 -3.070068 -6.616388
584 117 CH2 19.948866 -3.908813 -6.616388
585 117 CH3 21.240419 -3.070068 -6.616388
586 118 CH3 -14.961913 3.218423 13.087373
587 118 CH2 -13.670360 2.379679 13.087373
588 118 CH2 -12.378808 3.218423 13.087373
589 118 CH2 -11.087255 2.379679 13.087373
590 118 CH3 -9.795702 3.218423 13.087373
591 119 CH3 -21.242757 1.950325 -2.447712
592 119 CH2 -19.951205 1.111581 -2.447712
593 119 CH2 -18.659652 1.950325 -2.447712
594 119 CH2 -17.368099 1.111581 -2.447712
595 119 CH3 -16.076546 1.950325 -2.447712
596 120 CH3 7.411146 16.807521 21.240449
597 120 CH2 8.702698 15.968777 21.240449
598 120 CH2 9.994251 16.807521 21.240449
599 120 CH2 11.285804 15.968777 21.240449
600 120 CH3 12.577356 16.807521 21.240449
601 121 CH3 -20.062319 -20.401224 7.064784
602 121 CH2 -18.770767 -21.239968 7.064784
603 121 CH2 -17.479214 -20.401224 7.064784
604 121 CH2 -16.187661 -21.239968 7.064784
605 121 CH3 -14.896109 -20.401224 7.064784
606 122 CH3 -0.944230 -7.074630 -10.620939
607 122 CH2 0.347322 -7.913374 -10.620939
608 122 CH2 1.638875 -7.074630 -10.620939
609 122 CH2 2.930428 -7.913374 -10.620939
610 122 CH3 4.221980 -7.074630 -10.620939
611 123 CH3 12.218678 21.133790 1.996756
612 123 CH2 13.510231 20.295046 1.996756
613 123 CH2 14.801784 21.133790 1.996756
614 123 CH2 16.093336 20.295046 1.996756
615 123 CH3 17.384889 21.133790 1.996756
616 124 CH3 7.528758 4.299782 -9.616467
617 124 CH2 8.820311 3.461038 -9.616467
618 124 CH2 10.111864 4.299782 -9.616467
619 124 CH2 11.403416 3.461038 -9.616467
620 124 CH3 12.694969 4.299782 -9.616467
621 125 CH3 -3.204251 -2.764982 -17.518950
622 125 CH2 -1.912698 -3.603726 -17.518950
623 125 CH2 -0.621145 -2.764982 -17.518950
624 125 CH2 0.670407 -3.603726 -17.518950
625 125 CH3 1.961960 -2.764982 -17.518950
626 126 CH3 -2.521425 -16.514131 -6.741225
627 126 CH2 -1.229872 -17.352875 -6.741225
628 126 CH2 0.061681 -16.514131 -6.741225
629 126 CH2 1.353233 -17.352875 -6.741225
630 126 CH3 2.644786 -16.514131 -6.741225
631 127 CH3 7.888946 -5.186068 -3.900831
632 127 CH2 9.180498 -6.024812 -3.900831
633 127 CH2 10.472051 -5.186068 -3.900831
634 127 CH2 11.763604 -6.024812 -3.900831
635 127 CH3 13.055156 -5.186068 -3.900831
636 128 CH3 -10.035138 4.564908 -6.502757
637 128 CH2 -8.743585 3.726164 -6.502757
638 128 CH2 -7.452032 4.564908 -6.502757
639 128 CH2 -6.160480 3.726164 -6.502757
640 128 CH3 -4.868927 4.564908 -6.502757
641 129 CH3 16.074385 -17.164241 2.817984
642 129 CH2 17.365938 -18.002985 2.817984
643 129 CH2 18.657491 -17.164241 2.817984
644 129 CH2 19.949043 -18.002985 2.817984
645 129 CH3 21.240596 -17.164241 2.817984
646 130 CH3 6.471806 -15.753614 -3.792625
647 130 CH2 7.763359 -16.592358 -3.792625
648 130 CH2 9.054911 -15.753614 -3.792625
649 130 CH2 10.346464 -16.592358 -3.792625
650 130 CH3 11.638017 -15.753614 -3.792625
651 131 CH3 14.561542 16.403975 -6.207002
652 131 CH2 15.853095 15.565231 -6.207002
653 131 CH2 17.144647 16.403975 -6.207002
654 131 CH2 18.436200 15.565231 -6.207002
655 131 CH3 19.727753 16.403975 -6.207002
656 132 CH3 -1.790218 -11.372646 21.226531
657 132 CH2 -0.498666 -12.211390 21.226531
658 132 CH2 0.792887 -11.372646 21.226531
659 132 CH2 2.084440 -12.211390 21.226531
660 132 CH3 3.375992 -11.372646 21.226531
661 133 CH3 7.200509 8.378111 -1.714138
662 133 CH2 8.492062 7.539367 -1.714138
663 133 CH2 9.783615 8.378111 -1.714138
664 133 CH2 11.075167 7.539367 -1.714138
665 133 CH3 12.366720 8.378111 -1.714138
666 134 CH3 -12.813498 -8.832675 8.420170
667 134 CH2 -11.521945 -9.671419 8.420170
668 134 CH2 -10.230392 -8.832675 8.420170
669 134 CH2 -8.938840 -9.671419 8.420170
670 134 CH3 -7.647287 -8.832675 8.420170
671 135 CH3 7.359792 -11.250673 -1.767245
672 135 CH2 8.651345 -12.089417 -1.767245
673 135 CH2 9.942897 -11.250673 -1.767245
674 135 CH2 11.234450 -12.089417 -1.767245
675 135 CH3 12.526003 -11.250673 -1.767245
676 136 CH3 -1.847559 12.360550 13.667303
677 136 CH2 -0.556007 11.521806 13.667303
678 136 CH2 0.735546 12.360550 13.667303
679 136 CH2 2.027099 11.521806 13.667303
680 136 CH3 3.318651 12.360550 13.667303
681 137 CH3 -2.194470 1.759563 19.705666
682 137 CH2 -0.902918 0.920819 19.705666
683 137 CH2 0.388635 1.759563 19.705666
684 137 CH2 1.680188 0.920819 19.705666
685 137 CH3 2.971740 1.759563 19.705666
686 138 CH3 16.073231 -12.792842 17.644779
687 138 CH2 17.364784 -13.631586 17.644779
688 138 CH2 18.656337 -12.792842 17.644779
689 138 CH2 19.947889 -13.631586 17.644779
690 138 CH3 21.239442 -12.792842 17.644779
691 139 CH3 -10.094954 12.310331 -15.940673
692 139 CH2 -8.803401 11.471586 -15.940673
693 139 CH2 -7.511848 12.310331 -15.940673
694 139 CH2 -6.220296 11.471586 -15.940673
695 139 CH3 -4.928743 12.310331 -15.940673
696 140 CH3 -3.047643 2.655915 5.610032
697 140 CH2 -1.756090 1.817171 5.610032
698 140 CH2 -0.464538 2.655915 5.610032
699 140 CH2 0.827015 1.817171 5.610032
700 140 CH3 2.118568 2.655915 5.610032
701 141 CH3 7.454809 -0.039177 7.612981
702 141 CH2 8.746361 -0.877921 7.612981
703 141 CH2 10.037914 -0.039177 7.612981
704 141 CH2 11.329467 -0.877921 7.612981
705 141 CH3 12.621019 -0.039177 7.612981
706 142 CH3 7.623985 3.644766 -5.763029
707 142 CH2 8.915538 2.806021 -5.763029
708 142 CH2 10.207091 3.644766 -5.763029
709 142 CH2 11.498643 2.806021 -5.763029
710 142 CH3 12.790196 3.644766 -5.763029
711 143 CH3 -3.295517 -1.015891 13.162414
712 143 CH2 -2.003965 -1.854635 13.162414
713 143 CH2 -0.712412 -1.015891 13.162414
714 143 CH2 0.579141 -1.854635 13.162414
715 143 CH3 1.870693 -1.015891 13.162414
716 144 CH3 -12.486870 -8.102180 19.120310
717 144 CH2 -11.195318 -8.940924 19.120310
718 144 CH2 -9.903765 -8.102180 19.120310
719 144 CH2 -8.612212 -8.940924 19.120310
720 144 CH3 -7.320660 -8.102180 19.120310
721 145 CH3 -12.311493 8.187915 -17.659595