LAMMPS data file
# Generated by Playmol on 4-Aug-2017 at 19:15:46

2 atom types
1 bond types
1 angle types
1 dihedral types

2500 atoms
2000 bonds
1500 angles
1000 dihedrals

-23.195419079151076 23.195419079151076 xlo xhi
-23.195419079151076 23.195419079151076 ylo yhi
-23.195419079151076 23.195419079151076 zlo zhi

Masses

1 14.02658 # CH2
2 15.03450 # CH3

Pair Coeffs # lj/cut

1 9.1004599999999991E-002 3.930 13.8 # CH2
2 0.20664800000000000 3.910 13.8 # CH3

Bond Coeffs # harmonic

1 95.872749999999996 1.54 # CH? CH?

Angle Coeffs # harmonic

1 62.093750000000000 114 # CH? CH? CH?

Dihedral Coeffs # opls

1 1.4109289600000001 -0.27098706000000000 2.7870456800000003 0.0 # CH? CH? CH? CH?

Atoms

1 1 2 0.0 -2.305148 -12.178081 -13.246785 # C1
2 1 1 0.0 -1.013595 -13.016825 -13.246785 # C2
3 1 1 0.0 0.277957 -12.178081 -13.246785 # C3
4 1 1 0.0 1.569510 -13.016825 -13.246785 # C4
5 1 2 0.0 2.861063 -12.178081 -13.246785 # C5
6 2 2 0.0 -12.340565 -2.292958 -2.765273 # C1
7 2 1 0.0 -11.049012 -3.131702 -2.765273 # C2
8 2 1 0.0 -9.757460 -2.292958 -2.765273 # C3
9 2 1 0.0 -8.465907 -3.131702 -2.765273 # C4
10 2 2 0.0 -7.174354 -2.292958 -2.765273 # C5
11 3 2 0.0 3.531352 17.002942 3.661813 # C1
12 3 1 0.0 4.822905 16.164198 3.661813 # C2
13 3 1 0.0 6.114458 17.002942 3.661813 # C3
14 3 1 0.0 7.406010 16.164198 3.661813 # C4
15 3 2 0.0 8.697563 17.002942 3.661813 # C5
16 4 2 0.0 -12.213236 -1.638630 3.598665 # C1
17 4 1 0.0 -10.921683 -2.477374 3.598665 # C2
18 4 1 0.0 -9.630130 -1.638630 3.598665 # C3
19 4 1 0.0 -8.338578 -2.477374 3.598665 # C4
20 4 2 0.0 -7.047025 -1.638630 3.598665 # C5
21 5 2 0.0 -21.240420 6.877693 16.934823 # C1
22 5 1 0.0 -19.948867 6.038948 16.934823 # C2
23 5 1 0.0 -18.657315 6.877693 16.934823 # C3
24 5 1 0.0 -17.365762 6.038948 16.934823 # C4
25 5 2 0.0 -16.074209 6.877693 16.934823 # C5
26 6 2 0.0 -11.283462 17.080893 9.302260 # C1
27 6 1 0.0 -9.991910 16.242149 9.302260 # C2
28 6 1 0.0 -8.700357 17.080893 9.302260 # C3
29 6 1 0.0 -7.408804 16.242149 9.302260 # C4
30 6 2 0.0 -6.117252 17.080893 9.302260 # C5
31 7 2 0.0 5.468640 -20.402590 5.917762 # C1
32 7 1 0.0 6.760193 -21.241334 5.917762 # C2
33 7 1 0.0 8.051745 -20.402590 5.917762 # C3
34 7 1 0.0 9.343298 -21.241334 5.917762 # C4
35 7 2 0.0 10.634851 -20.402590 5.917762 # C5
36 8 2 0.0 -0.574531 12.419523 6.140286 # C1
37 8 1 0.0 0.717022 11.580779 6.140286 # C2
38 8 1 0.0 2.008575 12.419523 6.140286 # C3
39 8 1 0.0 3.300128 11.580779 6.140286 # C4
40 8 2 0.0 4.591680 12.419523 6.140286 # C5
41 9 2 0.0 16.061354 -20.401861 9.405646 # C1
42 9 1 0.0 17.352907 -21.240605 9.405646 # C2
43 9 1 0.0 18.644460 -20.401861 9.405646 # C3
44 9 1 0.0 19.936012 -21.240605 9.405646 # C4
45 9 2 0.0 21.227565 -20.401861 9.405646 # C5
46 10 2 0.0 9.124094 7.013006 13.634183 # C1
47 10 1 0.0 10.415647 6.174262 13.634183 # C2
48 10 1 0.0 11.707200 7.013006 13.634183 # C3
49 10 1 0.0 12.998752 6.174262 13.634183 # C4
50 10 2 0.0 14.290305 7.013006 13.634183 # C5
51 11 2 0.0 -21.240419 7.090469 -12.451041 # C1
52 11 1 0.0 -19.948866 6.251725 -12.451041 # C2
53 11 1 0.0 -18.657314 7.090469 -12.451041 # C3
54 11 1 0.0 -17.365761 6.251725 -12.451041 # C4
55 11 2 0.0 -16.074208 7.090469 -12.451041 # C5
56 12 2 0.0 16.080920 -3.584767 13.277013 # C1
57 12 1 0.0 17.372473 -4.423511 13.277013 # C2
58 12 1 0.0 18.664026 -3.584767 13.277013 # C3
59 12 1 0.0 19.955578 -4.423511 13.277013 # C4
60 12 2 0.0 21.247131 -3.584767 13.277013 # C5
61 13 2 0.0 6.295277 4.127340 5.101632 # C1
62 13 1 0.0 7.586829 3.288596 5.101632 # C2
63 13 1 0.0 8.878382 4.127340 5.101632 # C3
64 13 1 0.0 10.169935 3.288596 5.101632 # C4
65 13 2 0.0 11.461487 4.127340 5.101632 # C5
66 14 2 0.0 -10.705824 0.313725 -15.606118 # C1
67 14 1 0.0 -9.414271 -0.525019 -15.606118 # C2
68 14 1 0.0 -8.122719 0.313725 -15.606118 # C3
69 14 1 0.0 -6.831166 -0.525019 -15.606118 # C4
70 14 2 0.0 -5.539613 0.313725 -15.606118 # C5
71 15 2 0.0 10.763875 21.240419 -17.226768 # C1
72 15 1 0.0 12.055428 20.401675 -17.226768 # C2
73 15 1 0.0 13.346980 21.240419 -17.226768 # C3
74 15 1 0.0 14.638533 20.401675 -17.226768 # C4
75 15 2 0.0 15.930086 21.240419 -17.226768 # C5
76 16 2 0.0 -12.165718 3.946087 9.343405 # C1
77 16 1 0.0 -10.874166 3.107343 9.343405 # C2
78 16 1 0.0 -9.582613 3.946087 9.343405 # C3
79 16 1 0.0 -8.291060 3.107343 9.343405 # C4
80 16 2 0.0 -6.999508 3.946087 9.343405 # C5
81 17 2 0.0 -6.032351 -13.617449 14.138492 # C1
82 17 1 0.0 -4.740798 -14.456193 14.138492 # C2
83 17 1 0.0 -3.449245 -13.617449 14.138492 # C3
84 17 1 0.0 -2.157693 -14.456193 14.138492 # C4
85 17 2 0.0 -0.866140 -13.617449 14.138492 # C5
86 18 2 0.0 7.208502 -5.423178 21.242947 # C1
87 18 1 0.0 8.500054 -6.261922 21.242947 # C2
88 18 1 0.0 9.791607 -5.423178 21.242947 # C3
89 18 1 0.0 11.083160 -6.261922 21.242947 # C4
90 18 2 0.0 12.374712 -5.423178 21.242947 # C5
91 19 2 0.0 -21.240419 16.455952 -21.240419 # C1
92 19 1 0.0 -19.948866 15.617208 -21.240419 # C2
93 19 1 0.0 -18.657314 16.455952 -21.240419 # C3
94 19 1 0.0 -17.365761 15.617208 -21.240419 # C4
95 19 2 0.0 -16.074208 16.455952 -21.240419 # C5
96 20 2 0.0 -3.161463 2.238478 -3.288174 # C1
97 20 1 0.0 -1.869910 1.399734 -3.288174 # C2
98 20 1 0.0 -0.578358 2.238478 -3.288174 # C3
99 20 1 0.0 0.713195 1.399734 -3.288174 # C4
100 20 2 0.0 2.004748 2.238478 -3.288174 # C5
101 21 2 0.0 -12.181118 -4.185307 -8.701135 # C1
102 21 1 0.0 -10.889566 -5.024051 -8.701135 # C2
103 21 1 0.0 -9.598013 -4.185307 -8.701135 # C3
104 21 1 0.0 -8.306460 -5.024051 -8.701135 # C4
105 21 2 0.0 -7.014908 -4.185307 -8.701135 # C5
106 22 2 0.0 16.074366 0.200296 -3.680862 # C1
107 22 1 0.0 17.365918 -0.638448 -3.680862 # C2
108 22 1 0.0 18.657471 0.200296 -3.680862 # C3
109 22 1 0.0 19.949024 -0.638448 -3.680862 # C4
110 22 2 0.0 21.240576 0.200296 -3.680862 # C5
111 23 2 0.0 -4.196275 15.269920 -7.189577 # C1
112 23 1 0.0 -2.904722 14.431176 -7.189577 # C2
113 23 1 0.0 -1.613169 15.269920 -7.189577 # C3
114 23 1 0.0 -0.321617 14.431176 -7.189577 # C4
115 23 2 0.0 0.969936 15.269920 -7.189577 # C5
116 24 2 0.0 -14.276191 14.881225 5.843598 # C1
117 24 1 0.0 -12.984638 14.042481 5.843598 # C2
118 24 1 0.0 -11.693085 14.881225 5.843598 # C3
119 24 1 0.0 -10.401533 14.042481 5.843598 # C4
120 24 2 0.0 -9.109980 14.881225 5.843598 # C5
121 25 2 0.0 7.448300 -0.670060 15.005143 # C1
122 25 1 0.0 8.739852 -1.508805 15.005143 # C2
123 25 1 0.0 10.031405 -0.670060 15.005143 # C3
124 25 1 0.0 11.322958 -1.508805 15.005143 # C4
125 25 2 0.0 12.614510 -0.670060 15.005143 # C5
126 26 2 0.0 -2.753074 -8.243394 -1.777750 # C1
127 26 1 0.0 -1.461521 -9.082138 -1.777750 # C2
128 26 1 0.0 -0.169969 -8.243394 -1.777750 # C3
129 26 1 0.0 1.121584 -9.082138 -1.777750 # C4
130 26 2 0.0 2.413137 -8.243394 -1.777750 # C5
131 27 2 0.0 -2.019078 -13.492220 -21.240419 # C1
132 27 1 0.0 -0.727525 -14.330964 -21.240419 # C2
133 27 1 0.0 0.564027 -13.492220 -21.240419 # C3
134 27 1 0.0 1.855580 -14.330964 -21.240419 # C4
135 27 2 0.0 3.147133 -13.492220 -21.240419 # C5
136 28 2 0.0 7.375320 9.820393 17.407238 # C1
137 28 1 0.0 8.666872 8.981649 17.407238 # C2
138 28 1 0.0 9.958425 9.820393 17.407238 # C3
139 28 1 0.0 11.249978 8.981649 17.407238 # C4
140 28 2 0.0 12.541530 9.820393 17.407238 # C5
141 29 2 0.0 7.347821 -5.002535 14.021648 # C1
142 29 1 0.0 8.639373 -5.841279 14.021648 # C2
143 29 1 0.0 9.930926 -5.002535 14.021648 # C3
144 29 1 0.0 11.222479 -5.841279 14.021648 # C4
145 29 2 0.0 12.514031 -5.002535 14.021648 # C5
146 30 2 0.0 7.274197 -17.072708 -12.030224 # C1
147 30 1 0.0 8.565750 -17.911452 -12.030224 # C2
148 30 1 0.0 9.857303 -17.072708 -12.030224 # C3
149 30 1 0.0 11.148855 -17.911452 -12.030224 # C4
150 30 2 0.0 12.440408 -17.072708 -12.030224 # C5
151 31 2 0.0 -12.416937 -9.896642 14.155788 # C1
152 31 1 0.0 -11.125384 -10.735386 14.155788 # C2
153 31 1 0.0 -9.833831 -9.896642 14.155788 # C3
154 31 1 0.0 -8.542279 -10.735386 14.155788 # C4
155 31 2 0.0 -7.250726 -9.896642 14.155788 # C5
156 32 2 0.0 7.414006 21.240419 -13.102892 # C1
157 32 1 0.0 8.705559 20.401675 -13.102892 # C2
158 32 1 0.0 9.997111 21.240419 -13.102892 # C3
159 32 1 0.0 11.288664 20.401675 -13.102892 # C4
160 32 2 0.0 12.580217 21.240419 -13.102892 # C5
161 33 2 0.0 16.074208 20.908949 16.050496 # C1
162 33 1 0.0 17.365761 20.070205 16.050496 # C2
163 33 1 0.0 18.657314 20.908949 16.050496 # C3
164 33 1 0.0 19.948866 20.070205 16.050496 # C4
165 33 2 0.0 21.240419 20.908949 16.050496 # C5
166 34 2 0.0 6.180667 -10.598524 -17.455050 # C1
167 34 1 0.0 7.472220 -11.437268 -17.455050 # C2
168 34 1 0.0 8.763772 -10.598524 -17.455050 # C3
169 34 1 0.0 10.055325 -11.437268 -17.455050 # C4
170 34 2 0.0 11.346878 -10.598524 -17.455050 # C5
171 35 2 0.0 9.637264 8.901154 10.044651 # C1
172 35 1 0.0 10.928817 8.062410 10.044651 # C2
173 35 1 0.0 12.220370 8.901154 10.044651 # C3
174 35 1 0.0 13.511922 8.062410 10.044651 # C4
175 35 2 0.0 14.803475 8.901154 10.044651 # C5
176 36 2 0.0 -3.271779 21.240419 -15.692491 # C1
177 36 1 0.0 -1.980227 20.401675 -15.692491 # C2
178 36 1 0.0 -0.688674 21.240419 -15.692491 # C3
179 36 1 0.0 0.602879 20.401675 -15.692491 # C4
180 36 2 0.0 1.894431 21.240419 -15.692491 # C5
181 37 2 0.0 -19.633170 2.273230 17.493195 # C1
182 37 1 0.0 -18.341617 1.434486 17.493195 # C2
183 37 1 0.0 -17.050065 2.273230 17.493195 # C3
184 37 1 0.0 -15.758512 1.434486 17.493195 # C4
185 37 2 0.0 -14.466959 2.273230 17.493195 # C5
186 38 2 0.0 -14.367434 5.288062 3.176970 # C1
187 38 1 0.0 -13.075882 4.449317 3.176970 # C2
188 38 1 0.0 -11.784329 5.288062 3.176970 # C3
189 38 1 0.0 -10.492776 4.449317 3.176970 # C4
190 38 2 0.0 -9.201224 5.288062 3.176970 # C5
191 39 2 0.0 15.762962 -1.600058 9.765436 # C1
192 39 1 0.0 17.054515 -2.438803 9.765436 # C2
193 39 1 0.0 18.346068 -1.600058 9.765436 # C3
194 39 1 0.0 19.637620 -2.438803 9.765436 # C4
195 39 2 0.0 20.929173 -1.600058 9.765436 # C5
196 40 2 0.0 6.760045 -5.839008 -15.858053 # C1
197 40 1 0.0 8.051598 -6.677752 -15.858053 # C2
198 40 1 0.0 9.343150 -5.839008 -15.858053 # C3
199 40 1 0.0 10.634703 -6.677752 -15.858053 # C4
200 40 2 0.0 11.926256 -5.839008 -15.858053 # C5
201 41 2 0.0 16.074208 -18.080023 -17.571072 # C1
202 41 1 0.0 17.365761 -18.918767 -17.571072 # C2
203 41 1 0.0 18.657314 -18.080023 -17.571072 # C3
204 41 1 0.0 19.948866 -18.918767 -17.571072 # C4
205 41 2 0.0 21.240419 -18.080023 -17.571072 # C5
206 42 2 0.0 -3.225696 0.967298 -20.305792 # C1
207 42 1 0.0 -1.934144 0.128554 -20.305792 # C2
208 42 1 0.0 -0.642591 0.967298 -20.305792 # C3
209 42 1 0.0 0.648962 0.128554 -20.305792 # C4
210 42 2 0.0 1.940514 0.967298 -20.305792 # C5
211 43 2 0.0 -11.936647 21.240419 -13.210270 # C1
212 43 1 0.0 -10.645094 20.401675 -13.210270 # C2
213 43 1 0.0 -9.353541 21.240419 -13.210270 # C3
214 43 1 0.0 -8.061989 20.401675 -13.210270 # C4
215 43 2 0.0 -6.770436 21.240419 -13.210270 # C5
216 44 2 0.0 -21.239300 -8.176346 -20.474384 # C1
217 44 1 0.0 -19.947748 -9.015090 -20.474384 # C2
218 44 1 0.0 -18.656195 -8.176346 -20.474384 # C3
219 44 1 0.0 -17.364642 -9.015090 -20.474384 # C4
220 44 2 0.0 -16.073090 -8.176346 -20.474384 # C5
221 45 2 0.0 -12.347235 12.078579 18.152384 # C1
222 45 1 0.0 -11.055683 11.239835 18.152384 # C2
223 45 1 0.0 -9.764130 12.078579 18.152384 # C3
224 45 1 0.0 -8.472577 11.239835 18.152384 # C4
225 45 2 0.0 -7.181025 12.078579 18.152384 # C5
226 46 2 0.0 -21.240578 -6.743791 -11.022049 # C1
227 46 1 0.0 -19.949026 -7.582535 -11.022049 # C2
228 46 1 0.0 -18.657473 -6.743791 -11.022049 # C3
229 46 1 0.0 -17.365920 -7.582535 -11.022049 # C4
230 46 2 0.0 -16.074368 -6.743791 -11.022049 # C5
231 47 2 0.0 -14.999940 -5.490830 14.602237 # C1
232 47 1 0.0 -13.708388 -6.329574 14.602237 # C2
233 47 1 0.0 -12.416835 -5.490830 14.602237 # C3
234 47 1 0.0 -11.125282 -6.329574 14.602237 # C4
235 47 2 0.0 -9.833730 -5.490830 14.602237 # C5
236 48 2 0.0 7.427828 14.445985 17.116112 # C1
237 48 1 0.0 8.719381 13.607241 17.116112 # C2
238 48 1 0.0 10.010934 14.445985 17.116112 # C3
239 48 1 0.0 11.302486 13.607241 17.116112 # C4
240 48 2 0.0 12.594039 14.445985 17.116112 # C5
241 49 2 0.0 -21.186148 11.529493 21.237060 # C1
242 49 1 0.0 -19.894595 10.690749 21.237060 # C2
243 49 1 0.0 -18.603042 11.529493 21.237060 # C3
244 49 1 0.0 -17.311490 10.690749 21.237060 # C4
245 49 2 0.0 -16.019937 11.529493 21.237060 # C5
246 50 2 0.0 16.074208 -7.951237 17.373652 # C1
247 50 1 0.0 17.365761 -8.789981 17.373652 # C2
248 50 1 0.0 18.657314 -7.951237 17.373652 # C3
249 50 1 0.0 19.948866 -8.789981 17.373652 # C4
250 50 2 0.0 21.240419 -7.951237 17.373652 # C5
251 51 2 0.0 16.074208 5.079112 -21.240419 # C1
252 51 1 0.0 17.365761 4.240368 -21.240419 # C2
253 51 1 0.0 18.657314 5.079112 -21.240419 # C3
254 51 1 0.0 19.948866 4.240368 -21.240419 # C4
255 51 2 0.0 21.240419 5.079112 -21.240419 # C5
256 52 2 0.0 -20.887362 1.826297 -6.815899 # C1
257 52 1 0.0 -19.595809 0.987552 -6.815899 # C2
258 52 1 0.0 -18.304256 1.826297 -6.815899 # C3
259 52 1 0.0 -17.012704 0.987552 -6.815899 # C4
260 52 2 0.0 -15.721151 1.826297 -6.815899 # C5
261 53 2 0.0 -12.475075 0.778945 -21.240428 # C1
262 53 1 0.0 -11.183522 -0.059799 -21.240428 # C2
263 53 1 0.0 -9.891969 0.778945 -21.240428 # C3
264 53 1 0.0 -8.600417 -0.059799 -21.240428 # C4
265 53 2 0.0 -7.308864 0.778945 -21.240428 # C5
266 54 2 0.0 -21.240419 21.240419 -21.207203 # C1
267 54 1 0.0 -19.948866 20.401675 -21.207203 # C2
268 54 1 0.0 -18.657314 21.240419 -21.207203 # C3
269 54 1 0.0 -17.365761 20.401675 -21.207203 # C4
270 54 2 0.0 -16.074208 21.240419 -21.207203 # C5
271 55 2 0.0 -13.377875 19.582435 21.227203 # C1
272 55 1 0.0 -12.086323 18.743691 21.227203 # C2
273 55 1 0.0 -10.794770 19.582435 21.227203 # C3
274 55 1 0.0 -9.503217 18.743691 21.227203 # C4
275 55 2 0.0 -8.211665 19.582435 21.227203 # C5
276 56 2 0.0 -21.240419 1.534716 1.659259 # C1
277 56 1 0.0 -19.948866 0.695972 1.659259 # C2
278 56 1 0.0 -18.657314 1.534716 1.659259 # C3
279 56 1 0.0 -17.365761 0.695972 1.659259 # C4
280 56 2 0.0 -16.074208 1.534716 1.659259 # C5
281 57 2 0.0 16.074208 15.709530 -10.484031 # C1
282 57 1 0.0 17.365761 14.870785 -10.484031 # C2
283 57 1 0.0 18.657314 15.709530 -10.484031 # C3
284 57 1 0.0 19.948866 14.870785 -10.484031 # C4
285 57 2 0.0 21.240419 15.709530 -10.484031 # C5
286 58 2 0.0 -21.199165 -11.468303 -1.039797 # C1
287 58 1 0.0 -19.907613 -12.307047 -1.039797 # C2
288 58 1 0.0 -18.616060 -11.468303 -1.039797 # C3
289 58 1 0.0 -17.324507 -12.307047 -1.039797 # C4
290 58 2 0.0 -16.032955 -11.468303 -1.039797 # C5
291 59 2 0.0 -4.105537 -20.402715 -0.672291 # C1
292 59 1 0.0 -2.813985 -21.241460 -0.672291 # C2
293 59 1 0.0 -1.522432 -20.402715 -0.672291 # C3
294 59 1 0.0 -0.230879 -21.241460 -0.672291 # C4
295 59 2 0.0 1.060673 -20.402715 -0.672291 # C5
296 60 2 0.0 -21.240419 19.027224 -5.880571 # C1
297 60 1 0.0 -19.948866 18.188479 -5.880571 # C2
298 60 1 0.0 -18.657314 19.027224 -5.880571 # C3
299 60 1 0.0 -17.365761 18.188479 -5.880571 # C4
300 60 2 0.0 -16.074208 19.027224 -5.880571 # C5
301 61 2 0.0 -12.351025 -17.961743 -9.928171 # C1
302 61 1 0.0 -11.059472 -18.800488 -9.928171 # C2
303 61 1 0.0 -9.767920 -17.961743 -9.928171 # C3
304 61 1 0.0 -8.476367 -18.800488 -9.928171 # C4
305 61 2 0.0 -7.184814 -17.961743 -9.928171 # C5
306 62 2 0.0 -2.521416 -20.402973 -4.838332 # C1
307 62 1 0.0 -1.229864 -21.241717 -4.838332 # C2
308 62 1 0.0 0.061689 -20.402973 -4.838332 # C3
309 62 1 0.0 1.353242 -21.241717 -4.838332 # C4
310 62 2 0.0 2.644794 -20.402973 -4.838332 # C5
311 63 2 0.0 16.074555 -20.402097 13.424108 # C1
312 63 1 0.0 17.366108 -21.240841 13.424108 # C2
313 63 1 0.0 18.657661 -20.402097 13.424108 # C3
314 63 1 0.0 19.949213 -21.240841 13.424108 # C4
315 63 2 0.0 21.240766 -20.402097 13.424108 # C5
316 64 2 0.0 -20.657432 -3.280931 -21.165409 # C1
317 64 1 0.0 -19.365880 -4.119675 -21.165409 # C2
318 64 1 0.0 -18.074327 -3.280931 -21.165409 # C3
319 64 1 0.0 -16.782774 -4.119675 -21.165409 # C4
320 64 2 0.0 -15.491222 -3.280931 -21.165409 # C5
321 65 2 0.0 -3.047653 -1.429889 7.153060 # C1
322 65 1 0.0 -1.756101 -2.268633 7.153060 # C2
323 65 1 0.0 -0.464548 -1.429889 7.153060 # C3
324 65 1 0.0 0.827005 -2.268633 7.153060 # C4
325 65 2 0.0 2.118557 -1.429889 7.153060 # C5
326 66 2 0.0 14.617640 21.240419 -5.676292 # C1
327 66 1 0.0 15.909193 20.401675 -5.676292 # C2
328 66 1 0.0 17.200745 21.240419 -5.676292 # C3
329 66 1 0.0 18.492298 20.401675 -5.676292 # C4
330 66 2 0.0 19.783851 21.240419 -5.676292 # C5
331 67 2 0.0 8.574843 12.050364 7.011302 # C1
332 67 1 0.0 9.866395 11.211620 7.011302 # C2
333 67 1 0.0 11.157948 12.050364 7.011302 # C3
334 67 1 0.0 12.449501 11.211620 7.011302 # C4
335 67 2 0.0 13.741053 12.050364 7.011302 # C5
336 68 2 0.0 -21.240419 -20.401675 -18.235947 # C1
337 68 1 0.0 -19.948866 -21.240419 -18.235947 # C2
338 68 1 0.0 -18.657314 -20.401675 -18.235947 # C3
339 68 1 0.0 -17.365761 -21.240419 -18.235947 # C4
340 68 2 0.0 -16.074208 -20.401675 -18.235947 # C5
341 69 2 0.0 16.074208 21.117019 11.292959 # C1
342 69 1 0.0 17.365761 20.278275 11.292959 # C2
343 69 1 0.0 18.657314 21.117019 11.292959 # C3
344 69 1 0.0 19.948866 20.278275 11.292959 # C4
345 69 2 0.0 21.240419 21.117019 11.292959 # C5
346 70 2 0.0 -21.241961 11.435278 13.427163 # C1
347 70 1 0.0 -19.950409 10.596534 13.427163 # C2
348 70 1 0.0 -18.658856 11.435278 13.427163 # C3
349 70 1 0.0 -17.367303 10.596534 13.427163 # C4
350 70 2 0.0 -16.075751 11.435278 13.427163 # C5
351 71 2 0.0 -12.801914 20.791923 15.338024 # C1
352 71 1 0.0 -11.510361 19.953179 15.338024 # C2
353 71 1 0.0 -10.218808 20.791923 15.338024 # C3
354 71 1 0.0 -8.927256 19.953179 15.338024 # C4
355 71 2 0.0 -7.635703 20.791923 15.338024 # C5
356 72 2 0.0 -12.385571 3.792767 -18.339324 # C1
357 72 1 0.0 -11.094019 2.954023 -18.339324 # C2
358 72 1 0.0 -9.802466 3.792767 -18.339324 # C3
359 72 1 0.0 -8.510913 2.954023 -18.339324 # C4
360 72 2 0.0 -7.219361 3.792767 -18.339324 # C5
361 73 2 0.0 7.102878 -1.729387 -18.574009 # C1
362 73 1 0.0 8.394431 -2.568131 -18.574009 # C2
363 73 1 0.0 9.685983 -1.729387 -18.574009 # C3
364 73 1 0.0 10.977536 -2.568131 -18.574009 # C4
365 73 2 0.0 12.269089 -1.729387 -18.574009 # C5
366 74 2 0.0 -10.023482 -20.401675 -17.528103 # C1
367 74 1 0.0 -8.731929 -21.240419 -17.528103 # C2
368 74 1 0.0 -7.440376 -20.401675 -17.528103 # C3
369 74 1 0.0 -6.148824 -21.240419 -17.528103 # C4
370 74 2 0.0 -4.857271 -20.401675 -17.528103 # C5
371 75 2 0.0 -9.757776 11.887549 -20.312108 # C1
372 75 1 0.0 -8.466223 11.048805 -20.312108 # C2
373 75 1 0.0 -7.174671 11.887549 -20.312108 # C3
374 75 1 0.0 -5.883118 11.048805 -20.312108 # C4
375 75 2 0.0 -4.591565 11.887549 -20.312108 # C5
376 76 2 0.0 16.074208 -4.344524 -21.240419 # C1
377 76 1 0.0 17.365761 -5.183269 -21.240419 # C2
378 76 1 0.0 18.657314 -4.344524 -21.240419 # C3
379 76 1 0.0 19.948866 -5.183269 -21.240419 # C4
380 76 2 0.0 21.240419 -4.344524 -21.240419 # C5
381 77 2 0.0 6.577037 3.691481 -1.996169 # C1
382 77 1 0.0 7.868589 2.852737 -1.996169 # C2
383 77 1 0.0 9.160142 3.691481 -1.996169 # C3
384 77 1 0.0 10.451695 2.852737 -1.996169 # C4
385 77 2 0.0 11.743247 3.691481 -1.996169 # C5
386 78 2 0.0 -10.577584 -6.315502 -21.240455 # C1
387 78 1 0.0 -9.286032 -7.154246 -21.240455 # C2
388 78 1 0.0 -7.994479 -6.315502 -21.240455 # C3
389 78 1 0.0 -6.702926 -7.154246 -21.240455 # C4
390 78 2 0.0 -5.411374 -6.315502 -21.240455 # C5
391 79 2 0.0 -3.528722 -1.320264 -5.806117 # C1
392 79 1 0.0 -2.237169 -2.159008 -5.806117 # C2
393 79 1 0.0 -0.945616 -1.320264 -5.806117 # C3
394 79 1 0.0 0.345937 -2.159008 -5.806117 # C4
395 79 2 0.0 1.637489 -1.320264 -5.806117 # C5
396 80 2 0.0 -17.956419 -16.482582 17.168958 # C1
397 80 1 0.0 -16.664867 -17.321326 17.168958 # C2
398 80 1 0.0 -15.373314 -16.482582 17.168958 # C3
399 80 1 0.0 -14.081761 -17.321326 17.168958 # C4
400 80 2 0.0 -12.790209 -16.482582 17.168958 # C5
401 81 2 0.0 -2.181997 12.139731 21.160057 # C1
402 81 1 0.0 -0.890444 11.300987 21.160057 # C2
403 81 1 0.0 0.401109 12.139731 21.160057 # C3
404 81 1 0.0 1.692661 11.300987 21.160057 # C4
405 81 2 0.0 2.984214 12.139731 21.160057 # C5
406 82 2 0.0 16.074291 -10.526895 9.440613 # C1
407 82 1 0.0 17.365844 -11.365639 9.440613 # C2
408 82 1 0.0 18.657397 -10.526895 9.440613 # C3
409 82 1 0.0 19.948949 -11.365639 9.440613 # C4
410 82 2 0.0 21.240502 -10.526895 9.440613 # C5
411 83 2 0.0 -21.151447 3.632881 -15.574195 # C1
412 83 1 0.0 -19.859894 2.794137 -15.574195 # C2
413 83 1 0.0 -18.568342 3.632881 -15.574195 # C3
414 83 1 0.0 -17.276789 2.794137 -15.574195 # C4
415 83 2 0.0 -15.985236 3.632881 -15.574195 # C5
416 84 2 0.0 16.074208 -7.318873 -17.401152 # C1
417 84 1 0.0 17.365761 -8.157617 -17.401152 # C2
418 84 1 0.0 18.657314 -7.318873 -17.401152 # C3
419 84 1 0.0 19.948866 -8.157617 -17.401152 # C4
420 84 2 0.0 21.240419 -7.318873 -17.401152 # C5
421 85 2 0.0 -12.773604 -5.064275 6.312473 # C1
422 85 1 0.0 -11.482051 -5.903019 6.312473 # C2
423 85 1 0.0 -10.190499 -5.064275 6.312473 # C3
424 85 1 0.0 -8.898946 -5.903019 6.312473 # C4
425 85 2 0.0 -7.607393 -5.064275 6.312473 # C5
426 86 2 0.0 -4.171291 -6.398333 17.550375 # C1
427 86 1 0.0 -2.879739 -7.237077 17.550375 # C2
428 86 1 0.0 -1.588186 -6.398333 17.550375 # C3
429 86 1 0.0 -0.296633 -7.237077 17.550375 # C4
430 86 2 0.0 0.994919 -6.398333 17.550375 # C5
431 87 2 0.0 -3.351019 -16.401489 -2.746475 # C1
432 87 1 0.0 -2.059466 -17.240233 -2.746475 # C2
433 87 1 0.0 -0.767914 -16.401489 -2.746475 # C3
434 87 1 0.0 0.523639 -17.240233 -2.746475 # C4
435 87 2 0.0 1.815192 -16.401489 -2.746475 # C5
436 88 2 0.0 -21.240419 -11.620769 -17.352110 # C1
437 88 1 0.0 -19.948866 -12.459513 -17.352110 # C2
438 88 1 0.0 -18.657314 -11.620769 -17.352110 # C3
439 88 1 0.0 -17.365761 -12.459513 -17.352110 # C4
440 88 2 0.0 -16.074208 -11.620769 -17.352110 # C5
441 89 2 0.0 16.074210 -20.401727 -4.140482 # C1
442 89 1 0.0 17.365762 -21.240471 -4.140482 # C2
443 89 1 0.0 18.657315 -20.401727 -4.140482 # C3
444 89 1 0.0 19.948868 -21.240471 -4.140482 # C4
445 89 2 0.0 21.240420 -20.401727 -4.140482 # C5
446 90 2 0.0 14.234858 -11.368878 -9.956258 # C1
447 90 1 0.0 15.526411 -12.207622 -9.956258 # C2
448 90 1 0.0 16.817963 -11.368878 -9.956258 # C3
449 90 1 0.0 18.109516 -12.207622 -9.956258 # C4
450 90 2 0.0 19.401069 -11.368878 -9.956258 # C5
451 91 2 0.0 10.935000 -16.392171 15.324556 # C1
452 91 1 0.0 12.226552 -17.230915 15.324556 # C2
453 91 1 0.0 13.518105 -16.392171 15.324556 # C3
454 91 1 0.0 14.809658 -17.230915 15.324556 # C4
455 91 2 0.0 16.101211 -16.392171 15.324556 # C5
456 92 2 0.0 16.074192 -3.251042 17.172892 # C1
457 92 1 0.0 17.365744 -4.089786 17.172892 # C2
458 92 1 0.0 18.657297 -3.251042 17.172892 # C3
459 92 1 0.0 19.948850 -4.089786 17.172892 # C4
460 92 2 0.0 21.240402 -3.251042 17.172892 # C5
461 93 2 0.0 7.485490 -1.061422 -1.589466 # C1
462 93 1 0.0 8.777042 -1.900167 -1.589466 # C2
463 93 1 0.0 10.068595 -1.061422 -1.589466 # C3
464 93 1 0.0 11.360148 -1.900167 -1.589466 # C4
465 93 2 0.0 12.651700 -1.061422 -1.589466 # C5
466 94 2 0.0 -3.527300 -9.387132 -7.341891 # C1
467 94 1 0.0 -2.235747 -10.225876 -7.341891 # C2
468 94 1 0.0 -0.944195 -9.387132 -7.341891 # C3
469 94 1 0.0 0.347358 -10.225876 -7.341891 # C4
470 94 2 0.0 1.638911 -9.387132 -7.341891 # C5
471 95 2 0.0 7.367885 -16.228548 -7.749977 # C1
472 95 1 0.0 8.659438 -17.067292 -7.749977 # C2
473 95 1 0.0 9.950990 -16.228548 -7.749977 # C3
474 95 1 0.0 11.242543 -17.067292 -7.749977 # C4
475 95 2 0.0 12.534096 -16.228548 -7.749977 # C5
476 96 2 0.0 -19.038653 11.216137 -21.240419 # C1
477 96 1 0.0 -17.747100 10.377393 -21.240419 # C2
478 96 1 0.0 -16.455548 11.216137 -21.240419 # C3
479 96 1 0.0 -15.163995 10.377393 -21.240419 # C4
480 96 2 0.0 -13.872442 11.216137 -21.240419 # C5
481 97 2 0.0 16.024695 -20.303726 21.240519 # C1
482 97 1 0.0 17.316247 -21.142470 21.240519 # C2
483 97 1 0.0 18.607800 -20.303726 21.240519 # C3
484 97 1 0.0 19.899353 -21.142470 21.240519 # C4
485 97 2 0.0 21.190905 -20.303726 21.240519 # C5
486 98 2 0.0 9.961732 -6.423225 10.463419 # C1
487 98 1 0.0 11.253285 -7.261970 10.463419 # C2
488 98 1 0.0 12.544838 -6.423225 10.463419 # C3
489 98 1 0.0 13.836390 -7.261970 10.463419 # C4
490 98 2 0.0 15.127943 -6.423225 10.463419 # C5
491 99 2 0.0 -3.703490 16.339949 -3.461268 # C1
492 99 1 0.0 -2.411937 15.501205 -3.461268 # C2
493 99 1 0.0 -1.120385 16.339949 -3.461268 # C3
494 99 1 0.0 0.171168 15.501205 -3.461268 # C4
495 99 2 0.0 1.462721 16.339949 -3.461268 # C5
496 100 2 0.0 16.074219 -12.892328 1.751388 # C1
497 100 1 0.0 17.365771 -13.731072 1.751388 # C2
498 100 1 0.0 18.657324 -12.892328 1.751388 # C3
499 100 1 0.0 19.948877 -13.731072 1.751388 # C4
500 100 2 0.0 21.240429 -12.892328 1.751388 # C5
501 101 2 0.0 -21.240601 21.178347 -2.448748 # C1
502 101 1 0.0 -19.949048 20.339603 -2.448748 # C2
503 101 1 0.0 -18.657496 21.178347 -2.448748 # C3
504 101 1 0.0 -17.365943 20.339603 -2.448748 # C4
505 101 2 0.0 -16.074390 21.178347 -2.448748 # C5
506 102 2 0.0 16.074446 -2.477173 4.691349 # C1
507 102 1 0.0 17.365999 -3.315917 4.691349 # C2
508 102 1 0.0 18.657552 -2.477173 4.691349 # C3
509 102 1 0.0 19.949104 -3.315917 4.691349 # C4
510 102 2 0.0 21.240657 -2.477173 4.691349 # C5
511 103 2 0.0 -12.336706 9.797149 2.418968 # C1
512 103 1 0.0 -11.045154 8.958405 2.418968 # C2
513 103 1 0.0 -9.753601 9.797149 2.418968 # C3
514 103 1 0.0 -8.462048 8.958405 2.418968 # C4
515 103 2 0.0 -7.170496 9.797149 2.418968 # C5
516 104 2 0.0 -14.746992 -13.020440 -9.404109 # C1
517 104 1 0.0 -13.455439 -13.859185 -9.404109 # C2
518 104 1 0.0 -12.163886 -13.020440 -9.404109 # C3
519 104 1 0.0 -10.872334 -13.859185 -9.404109 # C4
520 104 2 0.0 -9.580781 -13.020440 -9.404109 # C5
521 105 2 0.0 -12.614806 -5.988633 -12.680128 # C1
522 105 1 0.0 -11.323253 -6.827377 -12.680128 # C2
523 105 1 0.0 -10.031700 -5.988633 -12.680128 # C3
524 105 1 0.0 -8.740148 -6.827377 -12.680128 # C4
525 105 2 0.0 -7.448595 -5.988633 -12.680128 # C5
526 106 2 0.0 -10.200621 16.597868 -17.750221 # C1
527 106 1 0.0 -8.909068 15.759124 -17.750221 # C2
528 106 1 0.0 -7.617516 16.597868 -17.750221 # C3
529 106 1 0.0 -6.325963 15.759124 -17.750221 # C4
530 106 2 0.0 -5.034410 16.597868 -17.750221 # C5
531 107 2 0.0 16.074208 21.240419 -9.784914 # C1
532 107 1 0.0 17.365761 20.401675 -9.784914 # C2
533 107 1 0.0 18.657314 21.240419 -9.784914 # C3
534 107 1 0.0 19.948866 20.401675 -9.784914 # C4
535 107 2 0.0 21.240419 21.240419 -9.784914 # C5
536 108 2 0.0 16.074208 6.288126 -9.980812 # C1
537 108 1 0.0 17.365761 5.449382 -9.980812 # C2
538 108 1 0.0 18.657314 6.288126 -9.980812 # C3
539 108 1 0.0 19.948866 5.449382 -9.980812 # C4
540 108 2 0.0 21.240419 6.288126 -9.980812 # C5
541 109 2 0.0 -12.350840 9.398239 21.241370 # C1
542 109 1 0.0 -11.059287 8.559494 21.241370 # C2
543 109 1 0.0 -9.767735 9.398239 21.241370 # C3
544 109 1 0.0 -8.476182 8.559494 21.241370 # C4
545 109 2 0.0 -7.184629 9.398239 21.241370 # C5
546 110 2 0.0 -21.240419 1.621278 -19.586576 # C1
547 110 1 0.0 -19.948866 0.782534 -19.586576 # C2
548 110 1 0.0 -18.657314 1.621278 -19.586576 # C3
549 110 1 0.0 -17.365761 0.782534 -19.586576 # C4
550 110 2 0.0 -16.074208 1.621278 -19.586576 # C5
551 111 2 0.0 -3.176278 -16.797720 -15.341766 # C1
552 111 1 0.0 -1.884726 -17.636464 -15.341766 # C2
553 111 1 0.0 -0.593173 -16.797720 -15.341766 # C3
554 111 1 0.0 0.698380 -17.636464 -15.341766 # C4
555 111 2 0.0 1.989932 -16.797720 -15.341766 # C5
556 112 2 0.0 -1.678949 15.258915 -14.643560 # C1
557 112 1 0.0 -0.387397 14.420171 -14.643560 # C2
558 112 1 0.0 0.904156 15.258915 -14.643560 # C3
559 112 1 0.0 2.195709 14.420171 -14.643560 # C4
560 112 2 0.0 3.487262 15.258915 -14.643560 # C5
561 113 2 0.0 7.279292 -5.186823 0.026908 # C1
562 113 1 0.0 8.570845 -6.025567 0.026908 # C2
563 113 1 0.0 9.862398 -5.186823 0.026908 # C3
564 113 1 0.0 11.153950 -6.025567 0.026908 # C4
565 113 2 0.0 12.445503 -5.186823 0.026908 # C5
566 114 2 0.0 5.720355 21.114693 5.672751 # C1
567 114 1 0.0 7.011908 20.275949 5.672751 # C2
568 114 1 0.0 8.303461 21.114693 5.672751 # C3
569 114 1 0.0 9.595013 20.275949 5.672751 # C4
570 114 2 0.0 10.886566 21.114693 5.672751 # C5
571 115 2 0.0 7.457421 21.240023 14.122915 # C1
572 115 1 0.0 8.748974 20.401278 14.122915 # C2
573 115 1 0.0 10.040526 21.240023 14.122915 # C3
574 115 1 0.0 11.332079 20.401278 14.122915 # C4
575 115 2 0.0 12.623632 21.240023 14.122915 # C5
576 116 2 0.0 -21.240419 11.619572 -14.003461 # C1
577 116 1 0.0 -19.948866 10.780828 -14.003461 # C2
578 116 1 0.0 -18.657314 11.619572 -14.003461 # C3
579 116 1 0.0 -17.365761 10.780828 -14.003461 # C4
580 116 2 0.0 -16.074208 11.619572 -14.003461 # C5
581 117 2 0.0 16.074208 -3.070068 -6.616388 # C1
582 117 1 0.0 17.365761 -3.908813 -6.616388 # C2
583 117 1 0.0 18.657314 -3.070068 -6.616388 # C3
584 117 1 0.0 19.948866 -3.908813 -6.616388 # C4
585 117 2 0.0 21.240419 -3.070068 -6.616388 # C5
586 118 2 0.0 -14.961913 3.218423 13.087373 # C1
587 118 1 0.0 -13.670360 2.379679 13.087373 # C2
588 118 1 0.0 -12.378808 3.218423 13.087373 # C3
589 118 1 0.0 -11.087255 2.379679 13.087373 # C4
590 118 2 0.0 -9.795702 3.218423 13.087373 # C5
591 119 2 0.0 -21.242757 1.950325 -2.447712 # C1
592 119 1 0.0 -19.951205 1.111581 -2.447712 # C2
593 119 1 0.0 -18.659652 1.950325 -2.447712 # C3
594 119 1 0.0 -17.368099 1.111581 -2.447712 # C4
595 119 2 0.0 -16.076546 1.950325 -2.447712 # C5
596 120 2 0.0 7.411146 16.807521 21.240449 # C1
597 120 1 0.0 8.702698 15.968777 21.240449 # C2
598 120 1 0.0 9.994251 16.807521 21.240449 # C3
599 120 1 0.0 11.285804 15.968777 21.240449 # C4
600 120 2 0.0 12.577356 16.807521 21.240449 # C5
601 121 2 0.0 -20.062319 -20.401224 7.064784 # C1
602 121 1 0.0 -18.770767 -21.239968 7.064784 # C2
603 121 1 0.0 -17.479214 -20.401224 7.064784 # C3
604 121 1 0.0 -16.187661 -21.239968 7.064784 # C4
605 121 2 0.0 -14.896109 -20.401224 7.064784 # C5
606 122 2 0.0 -0.944230 -7.074630 -10.620939 # C1
607 122 1 0.0 0.347322 -7.913374 -10.620939 # C2