LAMMPS data file
# Generated by Playmol on 4-Aug-2017 at 19:15:11

11 atom types
11 bond types
19 angle types
12 dihedral types
2 improper types

3400 atoms
3300 bonds
5800 angles
6000 dihedrals
500 impropers

-33.411812308730418 33.411812308730418 xlo xhi
-33.411812308730418 33.411812308730418 ylo yhi
-33.411812308730418 33.411812308730418 zlo zhi

Masses

1 14.007 # NA
2 12.011 # CR
3 12.011 # CW
4 12.011 # CT
5 1.008 # HA
6 1.008 # HC
7 12.011 # CF
8 0 # FB
9 0 # SB
10 14.007 # NB
11 0 # OB

Pair Coeffs # hybrid

1 0.1700 3.2500 # NA
2 0.0700 3.5500 # CR
3 0.0700 3.5500 # CW
4 0.0660 3.5000 # CT
5 0.0300 2.4200 # HA
6 0.0300 2.5000 # HC
7 0.0660 3.5000 # CF
8 0.0530 2.9500 # FB
9 0.2500 3.5500 # SB
10 0.1700 3.2500 # NB
11 0.2100 2.9600 # OB

Bond Coeffs # hybrid

1 477.1 1.315 # CR NA
2 427.1 1.378 # CW NA
3 520.1 1.341 # CW CW
4 337.0 1.466 # NA CT
5 340.0 1.080 # C? HA
6 340.0 1.090 # CT HC
7 267.9 1.529 # CT CT
8 441.9 1.323 # FB CF
9 233.0 1.818 # CF SB
10 374.9 1.570 # NB SB
11 637.1 1.437 # SB OB

Angle Coeffs # hybrid

1 37.50 110.7 # CT CT HC
2 32.99 107.8 # HC CT HC
3 70.00 108.0 # CW NA CR
4 70.00 125.6 # CW NA CT
5 70.00 126.4 # CR NA CT
6 35.00 125.1 # NA CR HA
7 70.00 109.8 # NA CR NA
8 70.00 107.1 # NA CW CW
9 35.00 122.0 # NA CW HA
10 35.00 130.9 # CW CW HA
11 37.50 110.7 # NA CT HC
12 58.35 112.7 # NA CT CT
13 93.33 107.10 # FB CF FB
14 82.93 111.70 # FB CF SB
15 91.30 103.50 # NB SB CF
16 103.97 102.60 # CF SB OB
17 94.29 113.60 # NB SB OB
18 115.80 118.50 # OB SB OB
19 80.19 125.60 # SB NB SB

Dihedral Coeffs # hybrid

1 0.0000 0.0000 0.3180 0.0000 # HC CT CT HC
2 0.0000 4.6511 0.0000 0.0000 # C? NA CR *
3 0.0000 2.9995 0.0000 0.0000 # C? NA CW *
4 0.0000 10.7505 0.0000 0.0000 # ?A CW CW ?A
5 0.0000 0.0000 0.1240 0.0000 # CW NA CT HC
6 -1.7097 1.4595 0.1897 0.0000 # CW NA CT CT
7 -1.2593 0.0000 0.0000 0.0000 # CR NA CT CT
8 0.0000 0.0000 0.0877 0.0000 # NA CT CT HC
9 0.0000 0.0000 0.3160 0.0000 # NB SB CF FB
10 0.0000 0.0000 0.3468 0.0000 # OB SB CF FB
11 7.8329 -2.4904 -0.7636 0.0000 # SB NB SB CF
12 0.0000 0.0000 -0.0036 0.0000 # OB SB NB SB

Improper Coeffs # 0.0000

1 2.0005 0.0000 0.0000 # C? C? NA CT
2 2.1989 0.0000 0.0000 # * * C? *

Atoms

1 1 1 0.15 3.798383 12.233584 23.650392 # NA1
2 1 2 -0.11 2.532208 11.942820 23.854067 # CR
3 1 1 0.15 1.846569 13.048401 24.045933 # NA2
4 1 3 -0.13 3.936124 13.603282 23.714656 # CW1
5 1 3 -0.13 2.719718 14.111090 23.961165 # CW2
6 1 5 0.21 2.117613 10.945603 23.862501 # HAR
7 1 5 0.21 4.851649 14.162438 23.589922 # HA1
8 1 5 0.21 2.471174 15.156206 24.072332 # HA2
9 1 4 -0.17 4.881124 11.277891 23.398440 # C1M
10 1 6 0.13 5.638313 11.372408 24.176791 # H1M1
11 1 6 0.13 4.480257 10.264292 23.403403 # H1M2
12 1 6 0.13 5.330984 11.485386 22.427527 # H1M3
13 1 4 -0.17 0.406731 13.142797 24.304995 # C1E
14 1 6 0.13 0.241318 13.621370 25.270244 # H1E.1
15 1 6 0.13 -0.066011 13.734349 23.520980 # H1E.2
16 1 4 -0.05 -0.198357 11.748522 24.321253 # CEE
17 1 6 0.06 -1.268906 11.818706 24.513871 # HCE.1
18 1 6 0.06 -0.034013 11.269288 23.356149 # HCE.2
19 1 6 0.06 0.273316 11.156308 25.105413 # HCE.3
20 2 7 0.35 1.716976 11.539598 21.591728 # CF1
21 2 8 -0.16 0.573796 11.767083 22.236411 # FB1.1
22 2 8 -0.16 2.434197 12.659998 21.658961 # FB1.2
23 2 8 -0.16 2.322252 10.528466 22.212595 # FB1.3
24 2 9 1.02 1.434314 11.102043 19.849955 # SB1
25 2 11 -0.53 0.658461 9.889643 19.951876 # OB1.1
26 2 11 -0.53 0.721640 12.252061 19.348156 # OB1.2
27 2 7 0.35 3.291243 8.637173 17.734788 # CF2
28 2 8 -0.16 3.764941 9.426813 16.772340 # FB2.1
29 2 8 -0.16 1.960767 8.577180 17.713380 # FB2.2
30 2 8 -0.16 3.840425 7.424386 17.692703 # FB2.3
31 2 9 1.02 3.767172 9.384714 19.322174 # SB2
32 2 11 -0.53 3.167136 8.788453 20.491225 # OB2.1
33 2 11 -0.53 5.162810 9.728268 19.450301 # OB2.2
34 2 10 -0.66 3.014976 10.907773 19.255169 # NB
35 3 1 0.15 12.220846 17.616966 21.558965 # NA1
36 3 2 -0.11 11.371888 17.354769 22.528371 # CR
37 3 1 0.15 11.094683 18.457935 23.188223 # NA2
38 3 3 -0.13 12.506553 18.964609 21.596437 # CW1
39 3 3 -0.13 11.804706 19.488716 22.611821 # CW2
40 3 5 0.21 10.963566 16.379679 22.749442 # HAR
41 3 5 0.21 13.170821 19.498169 20.932765 # HA1
42 3 5 0.21 11.797328 20.523833 22.919844 # HA2
43 3 4 -0.17 12.772787 16.653897 20.601354 # C1M
44 3 6 0.13 13.858737 16.631707 20.692568 # H1M1
45 3 6 0.13 12.370845 15.662392 20.809828 # H1M2
46 3 6 0.13 12.499739 16.950514 19.588654 # H1M3
47 3 4 -0.17 10.190704 18.578798 24.335991 # C1E
48 3 6 0.13 10.744169 18.953042 25.197221 # H1E.1
49 3 6 0.13 9.385171 19.271850 24.093307 # H1E.2
50 3 4 -0.05 9.603603 17.215950 24.665168 # CEE
51 3 6 0.06 8.931477 17.305813 25.518556 # HCE.1
52 3 6 0.06 9.049361 16.841076 23.804711 # HCE.2
53 3 6 0.06 10.408359 16.522267 24.908625 # HCE.3
54 4 7 0.35 9.243962 17.237813 21.343626 # CF1
55 4 8 -0.16 8.827837 17.436393 22.593278 # FB1.1
56 4 8 -0.16 9.941696 18.315047 20.987314 # FB1.2
57 4 8 -0.16 9.999871 16.141112 21.352142 # FB1.3
58 4 9 1.02 7.851998 17.008133 20.196974 # SB1
59 4 11 -0.53 7.210957 15.822995 20.713466 # OB1.1
60 4 11 -0.53 7.107142 18.233674 20.356622 # OB1.2
61 4 7 0.35 7.617596 14.723677 17.243330 # CF2
62 4 8 -0.16 7.427611 15.596512 16.255255 # FB2.1
63 4 8 -0.16 6.597310 14.718190 18.099605 # FB2.2
64 4 8 -0.16 7.878811 13.502687 16.779462 # FB2.3
65 4 9 1.02 9.086028 15.270853 18.164974 # SB2
66 4 11 -0.53 9.335434 14.571966 19.402554 # OB2.1
67 4 11 -0.53 10.253866 15.543514 17.362440 # OB2.2
68 4 10 -0.66 8.632911 16.819982 18.698717 # NB
69 5 1 0.15 19.779955 20.560156 -8.699924 # NA1
70 5 2 -0.11 19.188885 20.652879 -9.870934 # CR
71 5 1 0.15 18.077968 19.949273 -9.866123 # NA2
72 5 3 -0.13 19.006420 19.751468 -7.895659 # CW1
73 5 3 -0.13 17.945711 19.370755 -8.622456 # CW2
74 5 5 0.21 19.560142 21.221588 -10.710660 # HAR
75 5 5 0.21 19.215327 19.476179 -6.872442 # HA1
76 5 5 0.21 17.139546 18.731133 -8.294763 # HA2
77 5 4 -0.17 21.039492 21.199649 -8.307787 # C1M
78 5 6 0.13 21.763828 20.435013 -8.027130 # H1M1
79 5 6 0.13 21.429388 21.779012 -9.144699 # H1M2
80 5 6 0.13 20.863081 21.861075 -7.459557 # H1M3
81 5 4 -0.17 17.139689 19.801037 -10.982732 # C1E
82 5 6 0.13 17.060202 18.748298 -11.253881 # H1E.1
83 5 6 0.13 16.159454 20.174361 -10.686308 # H1E.2
84 5 4 -0.05 17.643249 20.594564 -12.177362 # CEE
85 5 6 0.06 16.945621 20.484348 -13.007584 # HCE.1
86 5 6 0.06 17.722498 21.647629 -11.907411 # HCE.2
87 5 6 0.06 18.623246 20.221567 -12.474985 # HCE.3
88 6 7 0.35 18.099371 22.830106 -9.736715 # CF1
89 6 8 -0.16 17.411152 22.262730 -10.725989 # FB1.1
90 6 8 -0.16 17.878654 22.106171 -8.640619 # FB1.2
91 6 8 -0.16 19.383247 22.809898 -10.090943 # FB1.3
92 6 9 1.02 17.575215 24.546721 -9.447548 # SB1
93 6 11 -0.53 17.876203 25.184100 -10.706677 # OB1.1
94 6 11 -0.53 16.171163 24.400942 -9.148155 # OB1.2
95 6 7 0.35 19.674257 27.498336 -8.509630 # CF2
96 6 8 -0.16 19.139039 27.834689 -7.337181 # FB2.1
97 6 8 -0.16 18.810276 27.659227 -9.510567 # FB2.2
98 6 8 -0.16 20.816070 28.146292 -8.734661 # FB2.3
99 6 9 1.02 20.072495 25.726425 -8.426819 # SB2
100 6 11 -0.53 20.470478 25.122920 -9.675676 # OB2.1
101 6 11 -0.53 20.834138 25.317006 -7.271603 # OB2.2
102 6 10 -0.66 18.553975 25.018054 -8.139927 # NB
103 7 1 0.15 -25.208663 13.697450 22.251093 # NA1
104 7 2 -0.11 -25.985685 14.728094 22.502560 # CR
105 7 1 0.15 -27.142912 14.310638 22.967080 # NA2
106 7 3 -0.13 -25.904354 12.551820 22.571594 # CW1
107 7 3 -0.13 -27.109814 12.933971 23.017810 # CW2
108 7 5 0.21 -25.714156 15.762271 22.350404 # HAR
109 7 5 0.21 -25.545969 11.537100 22.480475 # HA1
110 7 5 0.21 -27.905021 12.284958 23.353708 # HA2
111 7 4 -0.17 -23.841970 13.746334 21.722966 # C1M
112 7 6 0.13 -23.798089 13.207238 20.776632 # H1M1
113 7 6 0.13 -23.550626 14.784425 21.563007 # H1M2
114 7 6 0.13 -23.159589 13.283738 22.436030 # H1M3
115 7 4 -0.17 -28.274346 15.154344 23.363535 # C1E
116 7 6 0.13 -29.144123 14.905944 22.755354 # H1E.1
117 7 6 0.13 -28.505624 14.982445 24.414753 # H1E.2
118 7 4 -0.05 -27.913703 16.616476 23.157361 # CEE
119 7 6 0.06 -28.754946 17.243788 23.452132 # HCE.1
120 7 6 0.06 -27.044339 16.866066 23.765646 # HCE.2
121 7 6 0.06 -27.682838 16.789566 22.106247 # HCE.3
122 8 7 0.35 -25.132338 15.516620 24.646247 # CF1
123 8 8 -0.16 -26.341010 16.076231 24.633133 # FB1.1
124 8 8 -0.16 -25.311825 14.196771 24.648730 # FB1.2
125 8 8 -0.16 -24.499147 15.926241 23.548293 # FB1.3
126 8 9 1.02 -24.178830 16.003479 26.115573 # SB1
127 8 11 -0.53 -24.074555 17.434615 25.963179 # OB1.1
128 8 11 -0.53 -25.020362 15.556562 27.199241 # OB1.2
129 8 7 0.35 -20.512546 16.696481 26.390903 # CF2
130 8 8 -0.16 -20.138919 15.768628 27.270514 # FB2.1
131 8 8 -0.16 -21.342553 17.585390 26.934184 # FB2.2
132 8 8 -0.16 -19.463301 17.285950 25.820083 # FB2.3
133 8 9 1.02 -21.429858 15.844682 25.072533 # SB2
134 8 11 -0.53 -22.099389 16.706628 24.128590 # OB2.1
135 8 11 -0.53 -20.767998 14.697031 24.500618 # OB2.2
136 8 10 -0.66 -22.726766 15.141902 25.917593 # NB
137 9 1 0.15 21.776745 11.317975 -7.223416 # NA1
138 9 2 -0.11 22.683374 11.001112 -6.325170 # CR
139 9 1 0.15 23.883271 11.277970 -6.786493 # NA2
140 9 3 -0.13 22.429189 11.827527 -8.325164 # CW1
141 9 3 -0.13 23.742015 11.802595 -8.052865 # CW2
142 9 5 0.21 22.473932 10.577099 -5.354218 # HAR
143 9 5 0.21 21.969489 12.180522 -9.236466 # HA1
144 9 5 0.21 24.538654 12.131732 -8.703584 # HA2
145 9 4 -0.17 20.325455 11.161332 -7.087849 # C1M
146 9 6 0.13 19.956341 10.498563 -7.870531 # H1M1
147 9 6 0.13 20.095219 10.733819 -6.111977 # H1M2
148 9 6 0.13 19.844211 12.134982 -7.180097 # H1M3
149 9 4 -0.17 25.152830 11.068560 -6.083980 # C1E
150 9 6 0.13 25.778832 10.386490 -6.659308 # H1E.1
151 9 6 0.13 25.666703 12.022910 -5.968873 # H1E.2
152 9 4 -0.05 24.881470 10.471430 -4.712776 # CEE
153 9 6 0.06 25.825412 10.315729 -4.190442 # HCE.1
154 9 6 0.06 24.256000 11.153085 -4.136378 # HCE.2
155 9 6 0.06 24.368129 9.516665 -4.826811 # HCE.3
156 10 7 0.35 22.573874 12.886497 -4.782865 # CF1
157 10 8 -0.16 23.770636 12.383738 -4.484170 # FB1.1
158 10 8 -0.16 22.625817 13.295267 -6.049526 # FB1.2
159 10 8 -0.16 21.685397 11.908184 -4.616319 # FB1.3
160 10 9 1.02 22.143271 14.288478 -3.708549 # SB1
161 10 11 -0.53 22.128841 13.687136 -2.396897 # OB1.1
162 10 11 -0.53 23.222380 15.214936 -3.952368 # OB1.2
163 10 7 0.35 18.798972 15.210166 -2.307173 # CF2
164 10 8 -0.16 18.618354 16.417237 -2.840636 # FB2.1
165 10 8 -0.16 19.829062 15.193136 -1.462871 # FB2.2
166 10 8 -0.16 17.686102 14.751396 -1.736844 # FB2.3
167 10 9 1.02 19.206512 14.078708 -3.670565 # SB2
168 10 11 -0.53 19.643749 12.762484 -3.272283 # OB2.1
169 10 11 -0.53 18.304532 14.116514 -4.796288 # OB2.2
170 10 10 -0.66 20.625462 14.763404 -4.309134 # NB
171 11 1 0.15 -21.541253 5.531074 0.672903 # NA1
172 11 2 -0.11 -22.145915 4.931159 -0.328950 # CR
173 11 1 0.15 -21.327707 4.842919 -1.354607 # NA2
174 11 3 -0.13 -20.261776 5.847011 0.270038 # CW1
175 11 3 -0.13 -20.128692 5.418139 -0.993544 # CW2
176 11 5 0.21 -23.162075 4.565740 -0.311950 # HAR
177 11 5 0.21 -19.508082 6.346153 0.860970 # HA1
178 11 5 0.21 -19.247638 5.506864 -1.611825 # HA2
179 11 4 -0.17 -22.116583 5.818458 1.990311 # C1M
180 11 6 0.13 -22.105280 6.894233 2.165462 # H1M1
181 11 6 0.13 -23.143906 5.455883 2.025646 # H1M2
182 11 6 0.13 -21.528941 5.319234 2.760734 # H1M3
183 11 4 -0.17 -21.629768 4.240349 -2.656461 # C1E
184 11 6 0.13 -21.518522 4.990635 -3.439273 # H1E.1
185 11 6 0.13 -20.942182 3.415635 -2.844001 # H1E.2
186 11 4 -0.05 -23.057373 3.718484 -2.655035 # CEE
187 11 6 0.06 -23.281963 3.270462 -3.622989 # HCE.1
188 11 6 0.06 -23.169507 2.967614 -1.872909 # HCE.2
189 11 6 0.06 -23.745847 4.542613 -2.468181 # HCE.3
190 12 7 0.35 -21.999636 2.580666 0.302839 # CF1
191 12 8 -0.16 -22.233033 2.477773 -1.004510 # FB1.1
192 12 8 -0.16 -20.827419 3.197254 0.444087 # FB1.2
193 12 8 -0.16 -22.997452 3.292702 0.823983 # FB1.3
194 12 9 1.02 -21.930583 0.951462 1.106613 # SB1
195 12 11 -0.53 -23.252698 0.425613 0.866310 # OB1.1
196 12 11 -0.53 -20.863755 0.292935 0.392143 # OB1.2
197 12 7 0.35 -23.165343 -0.027957 4.499813 # CF2
198 12 8 -0.16 -22.035577 -0.428020 5.081023 # FB2.1
199 12 8 -0.16 -23.500746 -0.815495 3.479267 # FB2.2
200 12 8 -0.16 -24.158340 0.088724 5.379907 # FB2.3
201 12 9 1.02 -22.858004 1.629025 3.817848 # SB2
202 12 11 -0.53 -23.899234 2.149880 2.965323 # OB2.1
203 12 11 -0.53 -22.278550 2.578483 4.737093 # OB2.2
204 12 10 -0.66 -21.587574 1.349782 2.723303 # NB
205 13 1 0.15 -23.267520 -5.428201 29.472019 # NA1
206 13 2 -0.11 -24.155057 -5.086404 28.563900 # CR
207 13 1 0.15 -23.738631 -4.022884 27.912181 # NA2
208 13 3 -0.13 -22.220647 -4.534761 29.401335 # CW1
209 13 3 -0.13 -22.514253 -3.658942 28.429215 # CW2
210 13 5 0.21 -25.086296 -5.601831 28.380792 # HAR
211 13 5 0.21 -21.331095 -4.539232 30.013770 # HA1
212 13 5 0.21 -21.905672 -2.825277 28.111357 # HA2
213 13 4 -0.17 -23.363905 -6.558092 30.401112 # C1M
214 13 6 0.13 -23.338424 -6.189207 31.426477 # H1M1
215 13 6 0.13 -24.299396 -7.090812 30.230322 # H1M2
216 13 6 0.13 -22.525663 -7.235548 30.238315 # H1M3
217 13 4 -0.17 -24.446026 -3.338593 26.825674 # C1E
218 13 6 0.13 -24.644015 -2.306194 27.113860 # H1E.1
219 13 6 0.13 -23.831254 -3.352534 25.925697 # H1E.2
220 13 4 -0.05 -25.761725 -4.048326 26.550690 # CEE
221 13 6 0.06 -26.287688 -3.539543 25.742852 # HCE.1
222 13 6 0.06 -25.564780 -5.080726 26.261791 # HCE.2
223 13 6 0.06 -26.377542 -4.034386 27.449954 # HCE.3
224 14 7 0.35 -23.699953 -6.668538 26.765261 # CF1
225 14 8 -0.16 -24.366069 -5.721216 26.107163 # FB1.1
226 14 8 -0.16 -22.578396 -6.113543 27.221676 # FB1.2
227 14 8 -0.16 -24.485517 -7.081643 27.758466 # FB1.3
228 14 9 1.02 -23.288419 -8.075478 25.689954 # SB1
229 14 11 -0.53 -24.588571 -8.554858 25.287401 # OB1.1
230 14 11 -0.53 -22.507221 -7.456298 24.646597 # OB1.2
231 14 7 0.35 -23.232093 -11.719057 26.537806 # CF2
232 14 8 -0.16 -21.955208 -12.019194 26.306055 # FB2.1
233 14 8 -0.16 -23.865709 -11.363584 25.421386 # FB2.2
234 14 8 -0.16 -23.863873 -12.706361 27.170506 # FB2.3
235 14 9 1.02 -23.249867 -10.277070 27.644820 # SB2
236 14 11 -0.53 -24.542615 -9.668805 27.847475 # OB2.1
237 14 11 -0.53 -22.429329 -10.394003 28.826044 # OB2.2
238 14 10 -0.66 -22.425201 -9.101155 26.735344 # NB
239 15 1 0.15 9.340299 4.311563 -7.068459 # NA1
240 15 2 -0.11 10.646866 4.324609 -6.920343 # CR
241 15 1 0.15 11.095529 5.555663 -7.031842 # NA2
242 15 3 -0.13 8.923937 5.606849 -7.287666 # CW1
243 15 3 -0.13 10.017829 6.382194 -7.264845 # CW2
244 15 5 0.21 11.259547 3.454755 -6.734936 # HAR
245 15 5 0.21 7.907699 5.935546 -7.447722 # HA1
246 15 5 0.21 10.048415 7.452877 -7.403062 # HA2
247 15 4 -0.17 8.469837 3.133301 -7.012322 # C1M
248 15 6 0.13 7.945034 3.023093 -7.961288 # H1M1
249 15 6 0.13 9.072356 2.244374 -6.825555 # H1M2
250 15 6 0.13 7.743996 3.255130 -6.208324 # H1M3
251 15 4 -0.17 12.494190 5.982401 -6.927923 # C1E
252 15 6 0.13 12.799292 6.459200 -7.859413 # H1E.1
253 15 6 0.13 12.598254 6.691238 -6.106449 # H1E.2
254 15 4 -0.05 13.375851 4.772116 -6.666606 # CEE
255 15 6 0.06 14.415784 5.089403 -6.589341 # HCE.1
256 15 6 0.06 13.071937 4.294925 -5.734927 # HCE.2
257 15 6 0.06 13.272975 4.062886 -7.487891 # HCE.3
258 16 7 0.35 10.900808 4.190690 -4.498989 # CF1
259 16 8 -0.16 12.093935 4.665241 -4.853211 # FB1.1
260 16 8 -0.16 9.996927 5.106052 -4.844441 # FB1.2
261 16 8 -0.16 10.722280 3.047558 -5.158990 # FB1.3
262 16 9 1.02 10.800880 3.882135 -2.710154 # SB1
263 16 11 -0.53 11.825098 2.886629 -2.504741 # OB1.1
264 16 11 -0.53 11.080928 5.182297 -2.150333 # OB1.2
265 16 7 0.35 9.044705 1.106980 -0.917930 # CF2
266 16 8 -0.16 8.169461 1.788111 -0.180208 # FB2.1
267 16 8 -0.16 10.300608 1.365713 -0.557391 # FB2.2
268 16 8 -0.16 8.787631 -0.199930 -0.906869 # FB2.3
269 16 9 1.02 8.853487 1.674894 -2.634331 # SB2
270 16 11 -0.53 9.859153 1.205740 -3.556709 # OB2.1
271 16 11 -0.53 7.501800 1.672971 -3.139491 # OB2.2
272 16 10 -0.66 9.203171 3.334397 -2.516995 # NB
273 17 1 0.15 23.872844 -23.931988 -23.663359 # NA1
274 17 2 -0.11 23.141554 -23.473946 -22.671069 # CR
275 17 1 0.15 22.190033 -24.335162 -22.384471 # NA2
276 17 3 -0.13 23.363871 -25.156963 -24.036931 # CW1
277 17 3 -0.13 22.315113 -25.408229 -23.239904 # CW2
278 17 5 0.21 23.298834 -22.531783 -22.167094 # HAR
279 17 5 0.21 23.739175 -25.794589 -24.823684 # HA1
280 17 5 0.21 21.686783 -26.286309 -23.263924 # HA2
281 17 4 -0.17 25.027896 -23.265975 -24.272816 # C1M
282 17 6 0.13 24.831835 -23.093443 -25.331065 # H1M1
283 17 6 0.13 25.201698 -22.311621 -23.775719 # H1M2
284 17 6 0.13 25.910181 -23.896961 -24.165447 # H1M3
285 17 4 -0.17 21.171496 -24.187587 -21.340459 # C1E
286 17 6 0.13 20.180470 -24.204666 -21.793974 # H1E.1
287 17 6 0.13 21.258817 -25.008185 -20.628355 # H1E.2
288 17 4 -0.05 21.374154 -22.866216 -20.617057 # CEE
289 17 6 0.06 20.616851 -22.756490 -19.840814 # HCE.1
290 17 6 0.06 22.364746 -22.848386 -20.162623 # HCE.2
291 17 6 0.06 21.286399 -22.044866 -21.328241 # HCE.3
292 18 7 0.35 24.522321 -23.979600 -20.726033 # CF1
293 18 8 -0.16 23.329746 -23.817800 -20.155235 # FB1.1
294 18 8 -0.16 24.426975 -25.028085 -21.542006 # FB1.2
295 18 8 -0.16 24.792722 -22.858652 -21.392803 # FB1.3
296 18 9 1.02 25.824572 -24.283847 -19.494488 # SB1
297 18 11 -0.53 25.798942 -23.076597 -18.704464 # OB1.1
298 18 11 -0.53 25.352861 -25.471613 -18.824451 # OB1.2
299 18 7 0.35 29.371834 -23.094572 -19.510579 # CF2
300 18 8 -0.16 30.032663 -24.251021 -19.523126 # FB2.1
301 18 8 -0.16 28.680912 -22.933487 -18.383235 # FB2.2
302 18 8 -0.16 30.179927 -22.062122 -19.745641 # FB2.3
303 18 9 1.02 28.168069 -23.151957 -20.871747 # SB2
304 18 11 -0.53 27.209545 -22.073573 -20.895606 # OB2.1
305 18 11 -0.53 28.704774 -23.530952 -22.156489 # OB2.2
306 18 10 -0.66 27.207405 -24.492987 -20.460943 # NB
307 19 1 0.15 -0.858518 27.683824 -3.569781 # NA1
308 19 2 -0.11 0.019799 27.784252 -2.596283 # CR
309 19 1 0.15 -0.216669 26.864803 -1.686382 # NA2
310 19 3 -0.13 -1.708452 26.641212 -3.270197 # CW1
311 19 3 -0.13 -1.308439 26.130784 -2.096429 # CW2
312 19 5 0.21 0.815935 28.512610 -2.550865 # HAR
313 19 5 0.21 -2.540245 26.299573 -3.868363 # HA1
314 19 5 0.21 -1.757431 25.300677 -1.571329 # HA2
315 19 4 -0.17 -0.930605 28.526519 -4.767205 # C1M
316 19 6 0.13 -1.895762 29.032061 -4.798783 # H1M1
317 19 6 0.13 -0.132977 29.268849 -4.738262 # H1M2
318 19 6 0.13 -0.816746 27.906098 -5.656145 # H1M3
319 19 4 -0.17 0.542482 26.651287 -0.450560 # C1E
320 19 6 0.13 -0.118660 26.770534 0.407793 # H1E.1
321 19 6 0.13 0.960356 25.644570 -0.449569 # H1E.2
322 19 4 -0.05 1.669954 27.667169 -0.365748 # CEE
323 19 6 0.06 2.234399 27.508416 0.553110 # HCE.1
324 19 6 0.06 2.332072 27.548327 -1.223406 # HCE.2
325 19 6 0.06 1.253056 28.674291 -0.366044 # HCE.3
326 20 7 0.35 1.981015 26.689628 -3.545389 # CF1
327 20 8 -0.16 2.268004 26.641606 -2.245560 # FB1.1
328 20 8 -0.16 0.879969 25.963223 -3.730480 # FB1.2
329 20 8 -0.16 1.785288 27.969977 -3.856228 # FB1.3
330 20 9 1.02 3.331130 26.016952 -4.560190 # SB1
331 20 11 -0.53 4.428899 26.900381 -4.249211 # OB1.1
332 20 11 -0.53 3.460309 24.669853 -4.059306 # OB1.2
333 20 7 0.35 4.545598 27.190876 -7.898553 # CF2
334 20 8 -0.16 4.331156 26.110036 -8.646901 # FB2.1
335 20 8 -0.16 5.464619 26.967077 -6.960716 # FB2.2
336 20 8 -0.16 4.848438 28.253602 -8.642277 # FB2.3
337 20 9 1.02 2.986866 27.565176 -7.041012 # SB2
338 20 11 -0.53 3.071526 28.580357 -6.019008 # OB2.1
339 20 11 -0.53 1.817754 27.632350 -7.884170 # OB2.2
340 20 10 -0.66 2.711869 26.151557 -6.137655 # NB
341 21 1 0.15 4.888402 26.091271 18.715400 # NA1
342 21 2 -0.11 4.045067 25.084852 18.787041 # CR
343 21 1 0.15 3.141134 25.192741 17.838101 # NA2
344 21 3 -0.13 4.506310 26.892410 17.661191 # CW1
345 21 3 -0.13 3.417380 26.332429 17.114443 # CW2
346 21 5 0.21 4.088344 24.289057 19.515903 # HAR
347 21 5 0.21 4.992537 27.800471 17.336525 # HA1
348 21 5 0.21 2.861530 26.704605 16.266553 # HA2
349 21 4 -0.17 6.036039 26.329360 19.595968 # C1M
350 21 6 0.13 5.915530 27.288585 20.099419 # H1M1
351 21 6 0.13 6.095378 25.534378 20.339329 # H1M2
352 21 6 0.13 6.951712 26.342389 19.004806 # H1M3
353 21 4 -0.17 2.031615 24.267993 17.587172 # C1E
354 21 6 0.13 1.085579 24.801924 17.676794 # H1E.1
355 21 6 0.13 2.121761 23.855728 16.582179 # H1E.2
356 21 4 -0.05 2.073129 23.138154 18.603116 # CEE
357 21 6 0.06 1.248180 22.450584 18.416546 # HCE.1
358 21 6 0.06 3.018601 22.603158 18.513879 # HCE.2
359 21 6 0.06 1.982419 23.549353 19.608494 # HCE.3
360 22 7 0.35 5.294828 23.278017 17.729301 # CF1
361 22 8 -0.16 4.050369 22.811507 17.640330 # FB1.1
362 22 8 -0.16 5.346916 24.395303 17.005988 # FB1.2
363 22 8 -0.16 5.533647 23.513385 19.018405 # FB1.3
364 22 9 1.02 6.510226 22.084777 17.093602 # SB1
365 22 11 -0.53 6.328035 20.952816 17.969797 # OB1.1
366 22 11 -0.53 6.076159 21.888732 15.731471 # OB1.2
367 22 7 0.35 9.946348 21.349012 18.377897 # CF2
368 22 8 -0.16 10.691681 21.668096 17.321066 # FB2.1
369 22 8 -0.16 9.154476 20.307818 18.126747 # FB2.2
370 22 8 -0.16 10.690527 21.151856 19.464888 # FB2.3
371 22 9 1.02 8.866923 22.771353 18.719821 # SB2
372 22 11 -0.53 7.834693 22.542463 19.701840 # OB2.1
373 22 11 -0.53 9.535060 24.047125 18.810643 # OB2.2
374 22 10 -0.66 7.980004 22.919099 17.277065 # NB
375 23 1 0.15 10.021599 -2.342115 20.069766 # NA1
376 23 2 -0.11 10.338466 -1.220708 19.460449 # CR
377 23 1 0.15 10.716647 -1.475409 18.227028 # NA2
378 23 3 -0.13 10.205998 -3.377264 19.178901 # CW1
379 23 3 -0.13 10.639165 -2.837116 18.030473 # CW2
380 23 5 0.21 10.294678 -0.237945 19.906163 # HAR
381 23 5 0.21 10.033956 -4.426228 19.369889 # HA1
382 23 5 0.21 10.881651 -3.369174 17.122445 # HA2
383 23 4 -0.17 9.553644 -2.479172 21.452296 # C1M
384 23 6 0.13 10.245987 -3.109888 22.009931 # H1M1
385 23 6 0.13 9.503224 -1.495236 21.918589 # H1M2
386 23 6 0.13 8.563290 -2.934439 21.457768 # H1M3
387 23 4 -0.17 11.146498 -0.490261 17.230098 # C1E
388 23 6 0.13 12.167204 -0.710544 16.917476 # H1E.1
389 23 6 0.13 10.484506 -0.535095 16.365312 # H1E.2
390 23 4 -0.05 11.092590 0.902333 17.836874 # CEE
391 23 6 0.06 11.412193 1.634811 17.095639 # HCE.1
392 23 6 0.06 10.072083 1.123846 18.149280 # HCE.2
393 23 6 0.06 11.754781 0.948398 18.701444 # HCE.3
394 24 7 0.35 8.155121 -0.313782 18.863907 # CF1
395 24 8 -0.16 8.945544 0.357531 18.027968 # FB1.1
396 24 8 -0.16 8.251441 -1.603115 18.543645 # FB1.2
397 24 8 -0.16 8.598876 -0.077442 20.097378 # FB1.3
398 24 9 1.02 6.422106 0.218647 18.728620 # SB1
399 24 11 -0.53 6.490505 1.610907 19.101690 # OB1.1
400 24 11 -0.53 6.122155 -0.035624 17.340231 # OB1.2
401 24 7 0.35 3.873575 0.572850 21.444725 # CF2
402 24 8 -0.16 2.946925 -0.296682 21.045402 # FB2.1
403 24 8 -0.16 3.998316 1.587600 20.590942 # FB2.2
404 24 8 -0.16 3.648331 0.998092 22.686763 # FB2.3
405 24 9 1.02 5.462840 -0.309798 21.461851 # SB2
406 24 11 -0.53 6.627414 0.517150 21.667214 # OB2.1
407 24 11 -0.53 5.464427 -1.567134 22.169913 # OB2.2
408 24 10 -0.66 5.634375 -0.796199 19.841978 # NB
409 25 1 0.15 -0.802177 -14.693170 21.838796 # NA1
410 25 2 -0.11 -0.403364 -15.919311 22.097161 # CR
411 25 1 0.15 0.908966 -15.954141 22.173308 # NA2
412 25 3 -0.13 0.315945 -13.893276 21.743143 # CW1
413 25 3 -0.13 1.382361 -14.679138 21.951618 # CW2
414 25 5 0.21 -1.055765 -16.770099 22.227293 # HAR
415 25 5 0.21 0.330454 -12.832900 21.538715 # HA1
416 25 5 0.21 2.417401 -14.370808 21.946694 # HA2
417 25 4 -0.17 -2.188632 -14.244555 21.678656 # C1M
418 25 6 0.13 -2.321809 -13.822757 20.682439 # H1M1
419 25 6 0.13 -2.862313 -15.091780 21.806974 # H1M2
420 25 6 0.13 -2.414094 -13.485103 22.427320 # H1M3
421 25 4 -0.17 1.731434 -17.136736 22.445654 # C1E
422 25 6 0.13 2.406142 -17.311534 21.607612 # H1E.1
423 25 6 0.13 2.313857 -16.973879 23.352494 # H1E.2
424 25 4 -0.05 0.832340 -18.347985 22.632492 # CEE
425 25 6 0.06 1.443860 -19.227269 22.834986 # HCE.1
426 25 6 0.06 0.157608 -18.174429 23.470773 # HCE.2
427 25 6 0.06 0.249892 -18.512084 21.725891 # HCE.3
428 26 7 0.35 -0.792006 -16.101628 24.497388 # CF1
429 26 8 -0.16 0.075997 -17.093488 24.305009 # FB1.1
430 26 8 -0.16 -0.165058 -14.967348 24.189867 # FB1.2
431 26 8 -0.16 -1.828509 -16.326429 23.691566 # FB1.3
432 26 9 1.02 -1.365749 -16.031367 26.221049 # SB1
433 26 11 -0.53 -2.010688 -17.311044 26.390545 # OB1.1
434 26 11 -0.53 -0.135894 -15.856506 26.955303 # OB1.2
435 26 7 0.35 -4.774037 -15.183818 27.510596 # CF2
436 26 8 -0.16 -4.511231 -14.106542 28.248590 # FB2.1
437 26 8 -0.16 -4.190190 -16.274444 28.004440 # FB2.2
438 26 8 -0.16 -6.083703 -15.358791 27.342125 # FB2.3
439 26 9 1.02 -4.057639 -14.892434 25.865303 # SB2
440 26 11 -0.53 -4.054523 -16.032917 24.981256 # OB2.1
441 26 11 -0.53 -4.409640 -13.634908 25.251320 # OB2.2
442 26 10 -0.66 -2.405942 -14.686785 26.211138 # NB
443 27 1 0.15 1.740227 6.246372 -4.199167 # NA1
444 27 2 -0.11 3.002689 5.878628 -4.212518 # CR
445 27 1 0.15 3.740675 6.798158 -3.630226 # NA2
446 27 3 -0.13 1.660476 7.471502 -3.573170 # CW1
447 27 3 -0.13 2.907193 7.815384 -3.218596 # CW2
448 27 5 0.21 3.377249 4.959306 -4.637904 # HAR
449 27 5 0.21 0.762652 8.046439 -3.400660 # HA1
450 27 5 0.21 3.202443 8.719408 -2.706767 # HA2
451 27 4 -0.17 0.608829 5.494164 -4.749875 # C1M
452 27 6 0.13 0.118007 6.087880 -5.521039 # H1M1
453 27 6 0.13 0.968861 4.561527 -5.184233 # H1M2
454 27 6 0.13 -0.102790 5.273008 -3.954396 # H1M3
455 27 4 -0.17 5.194585 6.756434 -3.447020 # C1E
456 27 6 0.13 5.649306 7.609999 -3.949765 # H1E.1
457 27 6 0.13 5.428509 6.795127 -2.383121 # H1E.2
458 27 4 -0.05 5.743874 5.468856 -4.039324 # CEE
459 27 6 0.06 6.824884 5.437832 -3.903107 # HCE.1
460 27 6 0.06 5.290200 4.614611 -3.536784 # HCE.2
461 27 6 0.06 5.510997 5.429483 -5.103428 # HCE.3
462 28 7 0.35 3.102947 4.283234 -2.371313 # CF1
463 28 8 -0.16 4.390700 4.595729 -2.506450 # FB1.1
464 28 8 -0.16 2.464686 5.397301 -2.016768 # FB1.2
465 28 8 -0.16 2.684181 3.829137 -3.551421 # FB1.3
466 28 9 1.02 2.847621 3.006146 -1.102857 # SB1
467 28 11 -0.53 3.589669 1.886334 -1.629768 # OB1.1
468 28 11 -0.53 3.407473 3.618658 0.077670 # OB1.2
469 28 7 0.35 0.390025 0.185173 -1.096820 # CF2
470 28 8 -0.16 -0.327917 0.469460 -0.011479 # FB2.1
471 28 8 -0.16 1.652898 -0.107044 -0.790253 # FB2.2
472 28 8 -0.16 -0.175939 -0.776074 -1.824770 # FB2.3
473 28 9 1.02 0.422568 1.684739 -2.124130 # SB2
474 28 11 -0.53 1.326861 1.645067 -3.247932 # OB2.1
475 28 11 -0.53 -0.864203 2.282762 -2.386498 # OB2.2
476 28 10 -0.66 1.157605 2.822280 -1.096648 # NB
477 29 1 0.15 11.001523 -5.735077 -24.218111 # NA1
478 29 2 -0.11 10.298803 -5.449633 -25.292323 # CR
479 29 1 0.15 9.050244 -5.209143 -24.956933 # NA2
480 29 3 -0.13 10.158365 -5.675104 -23.129688 # CW1
481 29 3 -0.13 8.942292 -5.347332 -23.590137 # CW2
482 29 5 0.21 10.688623 -5.417529 -26.299006 # HAR
483 29 5 0.21 10.426679 -5.857763 -22.099619 # HA1
484 29 5 0.21 8.046857 -5.216322 -23.000703 # HA2
485 29 4 -0.17 12.430131 -6.061096 -24.173982 # C1M
486 29 6 0.13 12.562906 -7.058737 -23.755433 # H1M1
487 29 6 0.13 12.840995 -6.033415 -25.183203 # H1M2
488 29 6 0.13 12.950200 -5.333882 -23.550454 # H1M3
489 29 4 -0.17 7.959027 -4.855634 -25.869860 # C1E
490 29 6 0.13 7.170209 -5.604746 -25.801344 # H1E.1
491 29 6 0.13 7.557502 -3.879890 -25.596365 # H1E.2
492 29 4 -0.05 8.485943 -4.804621 -27.294697 # CEE
493 29 6 0.06 7.674603 -4.541780 -27.973477 # HCE.1
494 29 6 0.06 9.274455 -4.055296 -27.364421 # HCE.2
495 29 6 0.06 8.887162 -5.780151 -27.569401 # HCE.3
496 30 7 0.35 10.893770 -3.121116 -25.703899 # CF1
497 30 8 -0.16 9.760424 -3.219516 -26.396769 # FB1.1
498 30 8 -0.16 10.589341 -3.327490 -24.423682 # FB1.2
499 30 8 -0.16 11.720731 -4.055018 -26.171003 # FB1.3
500 30 9 1.02 11.659108 -1.482657 -25.890544 # SB1
501 30 11 -0.53 11.922712 -1.417960 -27.307787 # OB1.1
502 30 11 -0.53 10.625675 -0.596209 -25.412555 # OB1.2
503 30 7 0.35 15.292464 -0.618987 -26.115261 # CF2
504 30 8 -0.16 15.438863 0.164722 -25.048211 # FB2.1
505 30 8 -0.16 14.480241 -0.074302 -27.019604 # FB2.2
506 30 8 -0.16 16.467288 -0.954329 -26.645879 # FB2.3
507 30 9 1.02 14.504910 -2.155486 -25.546005 # SB2
508 30 11 -0.53 14.070605 -3.051599 -26.590328 # OB2.1
509 30 11 -0.53 15.130977 -2.787206 -24.409687 # OB2.2
510 30 10 -0.66 13.034393 -1.600544 -24.898227 # NB
511 31 1 0.15 25.707508 -13.402944 -11.554902 # NA1
512 31 2 -0.11 26.450158 -14.252998 -12.229516 # CR
513 31 1 0.15 25.814679 -14.635517 -13.315366 # NA2
514 31 3 -0.13 24.527447 -13.228059 -12.244864 # CW1
515 31 3 -0.13 24.594239 -13.996222 -13.342017 # CW2
516 31 5 0.21 27.434363 -14.586894 -11.935826 # HAR
517 31 5 0.21 23.703818 -12.591926 -11.956127 # HA1
518 31 5 0.21 23.834526 -14.095201 -14.103227 # HA2
519 31 4 -0.17 26.061852 -12.750212 -10.290964 # C1M
520 31 6 0.13 25.333984 -13.019763 -9.525687 # H1M1
521 31 6 0.13 27.054055 -13.076094 -9.978816 # H1M2
522 31 6 0.13 26.061355 -11.668772 -10.427292 # H1M3
523 31 4 -0.17 26.310001 -15.575984 -14.324988 # C1E
524 31 6 0.13 25.633695 -16.428228 -14.391236 # H1E.1
525 31 6 0.13 26.361065 -15.077236 -15.292842 # H1E.2
526 31 4 -0.05 27.696197 -16.059529 -13.931231 # CEE
527 31 6 0.06 28.064480 -16.758785 -14.681904 # HCE.1
528 31 6 0.06 28.373472 -15.208028 -13.865315 # HCE.2
529 31 6 0.06 27.646102 -16.559020 -12.963709 # HCE.3
530 32 7 0.35 28.023006 -12.781763 -13.372752 # CF1
531 32 8 -0.16 28.125537 -13.885507 -14.111304 # FB1.1
532 32 8 -0.16 26.770598 -12.344609 -13.493561 # FB1.2
533 32 8 -0.16 28.307377 -13.122962 -12.116989 # FB1.3
534 32 9 1.02 29.174581 -11.488925 -13.927341 # SB1
535 32 11 -0.53 30.462374 -12.110996 -13.735339 # OB1.1
536 32 11 -0.53 28.783675 -11.287656 -15.301725 # OB1.2
537 32 7 0.35 31.088946 -9.028732 -11.858439 # CF2
538 32 8 -0.16 30.610327 -7.874470 -12.319772 # FB2.1
539 32 8 -0.16 31.764454 -9.692264 -12.795262 # FB2.2
540 32 8 -0.16 31.815627 -8.855835 -10.755595 # FB2.3
541 32 9 1.02 29.659949 -10.055529 -11.401516 # SB2
542 32 11 -0.53 29.963699 -11.427710 -11.074248 # OB2.1
543 32 11 -0.53 28.687070 -9.416971 -10.548288 # OB2.2
544 32 10 -0.66 28.822666 -10.202022 -12.873758 # NB