ITEM: TIMESTEP
0
ITEM: NUMBER OF ATOMS
3400
ITEM: BOX BOUNDS pp pp pp
-33.411812308730418 33.411812308730418
-33.411812308730418 33.411812308730418
-33.411812308730418 33.411812308730418
ITEM: ATOMS id mol type x y z
1 1 NA 3.798383 12.233584 23.650392
2 1 CR 2.532208 11.942820 23.854067
3 1 NA 1.846569 13.048401 24.045933
4 1 CW 3.936124 13.603282 23.714656
5 1 CW 2.719718 14.111090 23.961165
6 1 HA 2.117613 10.945603 23.862501
7 1 HA 4.851649 14.162438 23.589922
8 1 HA 2.471174 15.156206 24.072332
9 1 CT 4.881124 11.277891 23.398440
10 1 HC 5.638313 11.372408 24.176791
11 1 HC 4.480257 10.264292 23.403403
12 1 HC 5.330984 11.485386 22.427527
13 1 CT 0.406731 13.142797 24.304995
14 1 HC 0.241318 13.621370 25.270244
15 1 HC -0.066011 13.734349 23.520980
16 1 CT -0.198357 11.748522 24.321253
17 1 HC -1.268906 11.818706 24.513871
18 1 HC -0.034013 11.269288 23.356149
19 1 HC 0.273316 11.156308 25.105413
20 2 CF 1.716976 11.539598 21.591728
21 2 FB 0.573796 11.767083 22.236411
22 2 FB 2.434197 12.659998 21.658961
23 2 FB 2.322252 10.528466 22.212595
24 2 SB 1.434314 11.102043 19.849955
25 2 OB 0.658461 9.889643 19.951876
26 2 OB 0.721640 12.252061 19.348156
27 2 CF 3.291243 8.637173 17.734788
28 2 FB 3.764941 9.426813 16.772340
29 2 FB 1.960767 8.577180 17.713380
30 2 FB 3.840425 7.424386 17.692703
31 2 SB 3.767172 9.384714 19.322174
32 2 OB 3.167136 8.788453 20.491225
33 2 OB 5.162810 9.728268 19.450301
34 2 NB 3.014976 10.907773 19.255169
35 3 NA 12.220846 17.616966 21.558965
36 3 CR 11.371888 17.354769 22.528371
37 3 NA 11.094683 18.457935 23.188223
38 3 CW 12.506553 18.964609 21.596437
39 3 CW 11.804706 19.488716 22.611821
40 3 HA 10.963566 16.379679 22.749442
41 3 HA 13.170821 19.498169 20.932765
42 3 HA 11.797328 20.523833 22.919844
43 3 CT 12.772787 16.653897 20.601354
44 3 HC 13.858737 16.631707 20.692568
45 3 HC 12.370845 15.662392 20.809828
46 3 HC 12.499739 16.950514 19.588654
47 3 CT 10.190704 18.578798 24.335991
48 3 HC 10.744169 18.953042 25.197221
49 3 HC 9.385171 19.271850 24.093307
50 3 CT 9.603603 17.215950 24.665168
51 3 HC 8.931477 17.305813 25.518556
52 3 HC 9.049361 16.841076 23.804711
53 3 HC 10.408359 16.522267 24.908625
54 4 CF 9.243962 17.237813 21.343626
55 4 FB 8.827837 17.436393 22.593278
56 4 FB 9.941696 18.315047 20.987314
57 4 FB 9.999871 16.141112 21.352142
58 4 SB 7.851998 17.008133 20.196974
59 4 OB 7.210957 15.822995 20.713466
60 4 OB 7.107142 18.233674 20.356622
61 4 CF 7.617596 14.723677 17.243330
62 4 FB 7.427611 15.596512 16.255255
63 4 FB 6.597310 14.718190 18.099605
64 4 FB 7.878811 13.502687 16.779462
65 4 SB 9.086028 15.270853 18.164974
66 4 OB 9.335434 14.571966 19.402554
67 4 OB 10.253866 15.543514 17.362440
68 4 NB 8.632911 16.819982 18.698717
69 5 NA 19.779955 20.560156 -8.699924
70 5 CR 19.188885 20.652879 -9.870934
71 5 NA 18.077968 19.949273 -9.866123
72 5 CW 19.006420 19.751468 -7.895659
73 5 CW 17.945711 19.370755 -8.622456
74 5 HA 19.560142 21.221588 -10.710660
75 5 HA 19.215327 19.476179 -6.872442
76 5 HA 17.139546 18.731133 -8.294763
77 5 CT 21.039492 21.199649 -8.307787
78 5 HC 21.763828 20.435013 -8.027130
79 5 HC 21.429388 21.779012 -9.144699
80 5 HC 20.863081 21.861075 -7.459557
81 5 CT 17.139689 19.801037 -10.982732
82 5 HC 17.060202 18.748298 -11.253881
83 5 HC 16.159454 20.174361 -10.686308
84 5 CT 17.643249 20.594564 -12.177362
85 5 HC 16.945621 20.484348 -13.007584
86 5 HC 17.722498 21.647629 -11.907411
87 5 HC 18.623246 20.221567 -12.474985
88 6 CF 18.099371 22.830106 -9.736715
89 6 FB 17.411152 22.262730 -10.725989
90 6 FB 17.878654 22.106171 -8.640619
91 6 FB 19.383247 22.809898 -10.090943
92 6 SB 17.575215 24.546721 -9.447548
93 6 OB 17.876203 25.184100 -10.706677
94 6 OB 16.171163 24.400942 -9.148155
95 6 CF 19.674257 27.498336 -8.509630
96 6 FB 19.139039 27.834689 -7.337181
97 6 FB 18.810276 27.659227 -9.510567
98 6 FB 20.816070 28.146292 -8.734661
99 6 SB 20.072495 25.726425 -8.426819
100 6 OB 20.470478 25.122920 -9.675676
101 6 OB 20.834138 25.317006 -7.271603
102 6 NB 18.553975 25.018054 -8.139927
103 7 NA -25.208663 13.697450 22.251093
104 7 CR -25.985685 14.728094 22.502560
105 7 NA -27.142912 14.310638 22.967080
106 7 CW -25.904354 12.551820 22.571594
107 7 CW -27.109814 12.933971 23.017810
108 7 HA -25.714156 15.762271 22.350404
109 7 HA -25.545969 11.537100 22.480475
110 7 HA -27.905021 12.284958 23.353708
111 7 CT -23.841970 13.746334 21.722966
112 7 HC -23.798089 13.207238 20.776632
113 7 HC -23.550626 14.784425 21.563007
114 7 HC -23.159589 13.283738 22.436030
115 7 CT -28.274346 15.154344 23.363535
116 7 HC -29.144123 14.905944 22.755354
117 7 HC -28.505624 14.982445 24.414753
118 7 CT -27.913703 16.616476 23.157361
119 7 HC -28.754946 17.243788 23.452132
120 7 HC -27.044339 16.866066 23.765646
121 7 HC -27.682838 16.789566 22.106247
122 8 CF -25.132338 15.516620 24.646247
123 8 FB -26.341010 16.076231 24.633133
124 8 FB -25.311825 14.196771 24.648730
125 8 FB -24.499147 15.926241 23.548293
126 8 SB -24.178830 16.003479 26.115573
127 8 OB -24.074555 17.434615 25.963179
128 8 OB -25.020362 15.556562 27.199241
129 8 CF -20.512546 16.696481 26.390903
130 8 FB -20.138919 15.768628 27.270514
131 8 FB -21.342553 17.585390 26.934184
132 8 FB -19.463301 17.285950 25.820083
133 8 SB -21.429858 15.844682 25.072533
134 8 OB -22.099389 16.706628 24.128590
135 8 OB -20.767998 14.697031 24.500618
136 8 NB -22.726766 15.141902 25.917593
137 9 NA 21.776745 11.317975 -7.223416
138 9 CR 22.683374 11.001112 -6.325170
139 9 NA 23.883271 11.277970 -6.786493
140 9 CW 22.429189 11.827527 -8.325164
141 9 CW 23.742015 11.802595 -8.052865
142 9 HA 22.473932 10.577099 -5.354218
143 9 HA 21.969489 12.180522 -9.236466
144 9 HA 24.538654 12.131732 -8.703584
145 9 CT 20.325455 11.161332 -7.087849
146 9 HC 19.956341 10.498563 -7.870531
147 9 HC 20.095219 10.733819 -6.111977
148 9 HC 19.844211 12.134982 -7.180097
149 9 CT 25.152830 11.068560 -6.083980
150 9 HC 25.778832 10.386490 -6.659308
151 9 HC 25.666703 12.022910 -5.968873
152 9 CT 24.881470 10.471430 -4.712776
153 9 HC 25.825412 10.315729 -4.190442
154 9 HC 24.256000 11.153085 -4.136378
155 9 HC 24.368129 9.516665 -4.826811
156 10 CF 22.573874 12.886497 -4.782865
157 10 FB 23.770636 12.383738 -4.484170
158 10 FB 22.625817 13.295267 -6.049526
159 10 FB 21.685397 11.908184 -4.616319
160 10 SB 22.143271 14.288478 -3.708549
161 10 OB 22.128841 13.687136 -2.396897
162 10 OB 23.222380 15.214936 -3.952368
163 10 CF 18.798972 15.210166 -2.307173
164 10 FB 18.618354 16.417237 -2.840636
165 10 FB 19.829062 15.193136 -1.462871
166 10 FB 17.686102 14.751396 -1.736844
167 10 SB 19.206512 14.078708 -3.670565
168 10 OB 19.643749 12.762484 -3.272283
169 10 OB 18.304532 14.116514 -4.796288
170 10 NB 20.625462 14.763404 -4.309134
171 11 NA -21.541253 5.531074 0.672903
172 11 CR -22.145915 4.931159 -0.328950
173 11 NA -21.327707 4.842919 -1.354607
174 11 CW -20.261776 5.847011 0.270038
175 11 CW -20.128692 5.418139 -0.993544
176 11 HA -23.162075 4.565740 -0.311950
177 11 HA -19.508082 6.346153 0.860970
178 11 HA -19.247638 5.506864 -1.611825
179 11 CT -22.116583 5.818458 1.990311
180 11 HC -22.105280 6.894233 2.165462
181 11 HC -23.143906 5.455883 2.025646
182 11 HC -21.528941 5.319234 2.760734
183 11 CT -21.629768 4.240349 -2.656461
184 11 HC -21.518522 4.990635 -3.439273
185 11 HC -20.942182 3.415635 -2.844001
186 11 CT -23.057373 3.718484 -2.655035
187 11 HC -23.281963 3.270462 -3.622989
188 11 HC -23.169507 2.967614 -1.872909
189 11 HC -23.745847 4.542613 -2.468181
190 12 CF -21.999636 2.580666 0.302839
191 12 FB -22.233033 2.477773 -1.004510
192 12 FB -20.827419 3.197254 0.444087
193 12 FB -22.997452 3.292702 0.823983
194 12 SB -21.930583 0.951462 1.106613
195 12 OB -23.252698 0.425613 0.866310
196 12 OB -20.863755 0.292935 0.392143
197 12 CF -23.165343 -0.027957 4.499813
198 12 FB -22.035577 -0.428020 5.081023
199 12 FB -23.500746 -0.815495 3.479267
200 12 FB -24.158340 0.088724 5.379907
201 12 SB -22.858004 1.629025 3.817848
202 12 OB -23.899234 2.149880 2.965323
203 12 OB -22.278550 2.578483 4.737093
204 12 NB -21.587574 1.349782 2.723303
205 13 NA -23.267520 -5.428201 29.472019
206 13 CR -24.155057 -5.086404 28.563900
207 13 NA -23.738631 -4.022884 27.912181
208 13 CW -22.220647 -4.534761 29.401335
209 13 CW -22.514253 -3.658942 28.429215
210 13 HA -25.086296 -5.601831 28.380792
211 13 HA -21.331095 -4.539232 30.013770
212 13 HA -21.905672 -2.825277 28.111357
213 13 CT -23.363905 -6.558092 30.401112
214 13 HC -23.338424 -6.189207 31.426477
215 13 HC -24.299396 -7.090812 30.230322
216 13 HC -22.525663 -7.235548 30.238315
217 13 CT -24.446026 -3.338593 26.825674
218 13 HC -24.644015 -2.306194 27.113860
219 13 HC -23.831254 -3.352534 25.925697
220 13 CT -25.761725 -4.048326 26.550690
221 13 HC -26.287688 -3.539543 25.742852
222 13 HC -25.564780 -5.080726 26.261791
223 13 HC -26.377542 -4.034386 27.449954
224 14 CF -23.699953 -6.668538 26.765261
225 14 FB -24.366069 -5.721216 26.107163
226 14 FB -22.578396 -6.113543 27.221676
227 14 FB -24.485517 -7.081643 27.758466
228 14 SB -23.288419 -8.075478 25.689954
229 14 OB -24.588571 -8.554858 25.287401
230 14 OB -22.507221 -7.456298 24.646597
231 14 CF -23.232093 -11.719057 26.537806
232 14 FB -21.955208 -12.019194 26.306055
233 14 FB -23.865709 -11.363584 25.421386
234 14 FB -23.863873 -12.706361 27.170506
235 14 SB -23.249867 -10.277070 27.644820
236 14 OB -24.542615 -9.668805 27.847475
237 14 OB -22.429329 -10.394003 28.826044
238 14 NB -22.425201 -9.101155 26.735344
239 15 NA 9.340299 4.311563 -7.068459
240 15 CR 10.646866 4.324609 -6.920343
241 15 NA 11.095529 5.555663 -7.031842
242 15 CW 8.923937 5.606849 -7.287666
243 15 CW 10.017829 6.382194 -7.264845
244 15 HA 11.259547 3.454755 -6.734936
245 15 HA 7.907699 5.935546 -7.447722
246 15 HA 10.048415 7.452877 -7.403062
247 15 CT 8.469837 3.133301 -7.012322
248 15 HC 7.945034 3.023093 -7.961288
249 15 HC 9.072356 2.244374 -6.825555
250 15 HC 7.743996 3.255130 -6.208324
251 15 CT 12.494190 5.982401 -6.927923
252 15 HC 12.799292 6.459200 -7.859413
253 15 HC 12.598254 6.691238 -6.106449
254 15 CT 13.375851 4.772116 -6.666606
255 15 HC 14.415784 5.089403 -6.589341
256 15 HC 13.071937 4.294925 -5.734927
257 15 HC 13.272975 4.062886 -7.487891
258 16 CF 10.900808 4.190690 -4.498989
259 16 FB 12.093935 4.665241 -4.853211
260 16 FB 9.996927 5.106052 -4.844441
261 16 FB 10.722280 3.047558 -5.158990
262 16 SB 10.800880 3.882135 -2.710154
263 16 OB 11.825098 2.886629 -2.504741
264 16 OB 11.080928 5.182297 -2.150333
265 16 CF 9.044705 1.106980 -0.917930
266 16 FB 8.169461 1.788111 -0.180208
267 16 FB 10.300608 1.365713 -0.557391
268 16 FB 8.787631 -0.199930 -0.906869
269 16 SB 8.853487 1.674894 -2.634331
270 16 OB 9.859153 1.205740 -3.556709
271 16 OB 7.501800 1.672971 -3.139491
272 16 NB 9.203171 3.334397 -2.516995
273 17 NA 23.872844 -23.931988 -23.663359
274 17 CR 23.141554 -23.473946 -22.671069
275 17 NA 22.190033 -24.335162 -22.384471
276 17 CW 23.363871 -25.156963 -24.036931
277 17 CW 22.315113 -25.408229 -23.239904
278 17 HA 23.298834 -22.531783 -22.167094
279 17 HA 23.739175 -25.794589 -24.823684
280 17 HA 21.686783 -26.286309 -23.263924
281 17 CT 25.027896 -23.265975 -24.272816
282 17 HC 24.831835 -23.093443 -25.331065
283 17 HC 25.201698 -22.311621 -23.775719
284 17 HC 25.910181 -23.896961 -24.165447
285 17 CT 21.171496 -24.187587 -21.340459
286 17 HC 20.180470 -24.204666 -21.793974
287 17 HC 21.258817 -25.008185 -20.628355
288 17 CT 21.374154 -22.866216 -20.617057
289 17 HC 20.616851 -22.756490 -19.840814
290 17 HC 22.364746 -22.848386 -20.162623
291 17 HC 21.286399 -22.044866 -21.328241
292 18 CF 24.522321 -23.979600 -20.726033
293 18 FB 23.329746 -23.817800 -20.155235
294 18 FB 24.426975 -25.028085 -21.542006
295 18 FB 24.792722 -22.858652 -21.392803
296 18 SB 25.824572 -24.283847 -19.494488
297 18 OB 25.798942 -23.076597 -18.704464
298 18 OB 25.352861 -25.471613 -18.824451
299 18 CF 29.371834 -23.094572 -19.510579
300 18 FB 30.032663 -24.251021 -19.523126
301 18 FB 28.680912 -22.933487 -18.383235
302 18 FB 30.179927 -22.062122 -19.745641
303 18 SB 28.168069 -23.151957 -20.871747
304 18 OB 27.209545 -22.073573 -20.895606
305 18 OB 28.704774 -23.530952 -22.156489
306 18 NB 27.207405 -24.492987 -20.460943
307 19 NA -0.858518 27.683824 -3.569781
308 19 CR 0.019799 27.784252 -2.596283
309 19 NA -0.216669 26.864803 -1.686382
310 19 CW -1.708452 26.641212 -3.270197
311 19 CW -1.308439 26.130784 -2.096429
312 19 HA 0.815935 28.512610 -2.550865
313 19 HA -2.540245 26.299573 -3.868363
314 19 HA -1.757431 25.300677 -1.571329
315 19 CT -0.930605 28.526519 -4.767205
316 19 HC -1.895762 29.032061 -4.798783
317 19 HC -0.132977 29.268849 -4.738262
318 19 HC -0.816746 27.906098 -5.656145
319 19 CT 0.542482 26.651287 -0.450560
320 19 HC -0.118660 26.770534 0.407793
321 19 HC 0.960356 25.644570 -0.449569
322 19 CT 1.669954 27.667169 -0.365748
323 19 HC 2.234399 27.508416 0.553110
324 19 HC 2.332072 27.548327 -1.223406
325 19 HC 1.253056 28.674291 -0.366044
326 20 CF 1.981015 26.689628 -3.545389
327 20 FB 2.268004 26.641606 -2.245560
328 20 FB 0.879969 25.963223 -3.730480
329 20 FB 1.785288 27.969977 -3.856228
330 20 SB 3.331130 26.016952 -4.560190
331 20 OB 4.428899 26.900381 -4.249211
332 20 OB 3.460309 24.669853 -4.059306
333 20 CF 4.545598 27.190876 -7.898553
334 20 FB 4.331156 26.110036 -8.646901
335 20 FB 5.464619 26.967077 -6.960716
336 20 FB 4.848438 28.253602 -8.642277
337 20 SB 2.986866 27.565176 -7.041012
338 20 OB 3.071526 28.580357 -6.019008
339 20 OB 1.817754 27.632350 -7.884170
340 20 NB 2.711869 26.151557 -6.137655
341 21 NA 4.888402 26.091271 18.715400
342 21 CR 4.045067 25.084852 18.787041
343 21 NA 3.141134 25.192741 17.838101
344 21 CW 4.506310 26.892410 17.661191
345 21 CW 3.417380 26.332429 17.114443
346 21 HA 4.088344 24.289057 19.515903
347 21 HA 4.992537 27.800471 17.336525
348 21 HA 2.861530 26.704605 16.266553
349 21 CT 6.036039 26.329360 19.595968
350 21 HC 5.915530 27.288585 20.099419
351 21 HC 6.095378 25.534378 20.339329
352 21 HC 6.951712 26.342389 19.004806
353 21 CT 2.031615 24.267993 17.587172
354 21 HC 1.085579 24.801924 17.676794
355 21 HC 2.121761 23.855728 16.582179
356 21 CT 2.073129 23.138154 18.603116
357 21 HC 1.248180 22.450584 18.416546
358 21 HC 3.018601 22.603158 18.513879
359 21 HC 1.982419 23.549353 19.608494
360 22 CF 5.294828 23.278017 17.729301
361 22 FB 4.050369 22.811507 17.640330
362 22 FB 5.346916 24.395303 17.005988
363 22 FB 5.533647 23.513385 19.018405
364 22 SB 6.510226 22.084777 17.093602
365 22 OB 6.328035 20.952816 17.969797
366 22 OB 6.076159 21.888732 15.731471
367 22 CF 9.946348 21.349012 18.377897
368 22 FB 10.691681 21.668096 17.321066
369 22 FB 9.154476 20.307818 18.126747
370 22 FB 10.690527 21.151856 19.464888
371 22 SB 8.866923 22.771353 18.719821
372 22 OB 7.834693 22.542463 19.701840
373 22 OB 9.535060 24.047125 18.810643
374 22 NB 7.980004 22.919099 17.277065
375 23 NA 10.021599 -2.342115 20.069766
376 23 CR 10.338466 -1.220708 19.460449
377 23 NA 10.716647 -1.475409 18.227028
378 23 CW 10.205998 -3.377264 19.178901
379 23 CW 10.639165 -2.837116 18.030473
380 23 HA 10.294678 -0.237945 19.906163
381 23 HA 10.033956 -4.426228 19.369889
382 23 HA 10.881651 -3.369174 17.122445
383 23 CT 9.553644 -2.479172 21.452296
384 23 HC 10.245987 -3.109888 22.009931
385 23 HC 9.503224 -1.495236 21.918589
386 23 HC 8.563290 -2.934439 21.457768
387 23 CT 11.146498 -0.490261 17.230098
388 23 HC 12.167204 -0.710544 16.917476
389 23 HC 10.484506 -0.535095 16.365312
390 23 CT 11.092590 0.902333 17.836874
391 23 HC 11.412193 1.634811 17.095639
392 23 HC 10.072083 1.123846 18.149280
393 23 HC 11.754781 0.948398 18.701444
394 24 CF 8.155121 -0.313782 18.863907
395 24 FB 8.945544 0.357531 18.027968
396 24 FB 8.251441 -1.603115 18.543645
397 24 FB 8.598876 -0.077442 20.097378
398 24 SB 6.422106 0.218647 18.728620
399 24 OB 6.490505 1.610907 19.101690
400 24 OB 6.122155 -0.035624 17.340231
401 24 CF 3.873575 0.572850 21.444725
402 24 FB 2.946925 -0.296682 21.045402
403 24 FB 3.998316 1.587600 20.590942
404 24 FB 3.648331 0.998092 22.686763
405 24 SB 5.462840 -0.309798 21.461851
406 24 OB 6.627414 0.517150 21.667214
407 24 OB 5.464427 -1.567134 22.169913
408 24 NB 5.634375 -0.796199 19.841978
409 25 NA -0.802177 -14.693170 21.838796
410 25 CR -0.403364 -15.919311 22.097161
411 25 NA 0.908966 -15.954141 22.173308
412 25 CW 0.315945 -13.893276 21.743143
413 25 CW 1.382361 -14.679138 21.951618
414 25 HA -1.055765 -16.770099 22.227293
415 25 HA 0.330454 -12.832900 21.538715
416 25 HA 2.417401 -14.370808 21.946694
417 25 CT -2.188632 -14.244555 21.678656
418 25 HC -2.321809 -13.822757 20.682439
419 25 HC -2.862313 -15.091780 21.806974
420 25 HC -2.414094 -13.485103 22.427320
421 25 CT 1.731434 -17.136736 22.445654
422 25 HC 2.406142 -17.311534 21.607612
423 25 HC 2.313857 -16.973879 23.352494
424 25 CT 0.832340 -18.347985 22.632492
425 25 HC 1.443860 -19.227269 22.834986
426 25 HC 0.157608 -18.174429 23.470773
427 25 HC 0.249892 -18.512084 21.725891
428 26 CF -0.792006 -16.101628 24.497388
429 26 FB 0.075997 -17.093488 24.305009
430 26 FB -0.165058 -14.967348 24.189867
431 26 FB -1.828509 -16.326429 23.691566
432 26 SB -1.365749 -16.031367 26.221049
433 26 OB -2.010688 -17.311044 26.390545
434 26 OB -0.135894 -15.856506 26.955303
435 26 CF -4.774037 -15.183818 27.510596
436 26 FB -4.511231 -14.106542 28.248590
437 26 FB -4.190190 -16.274444 28.004440
438 26 FB -6.083703 -15.358791 27.342125
439 26 SB -4.057639 -14.892434 25.865303
440 26 OB -4.054523 -16.032917 24.981256
441 26 OB -4.409640 -13.634908 25.251320
442 26 NB -2.405942 -14.686785 26.211138
443 27 NA 1.740227 6.246372 -4.199167
444 27 CR 3.002689 5.878628 -4.212518
445 27 NA 3.740675 6.798158 -3.630226
446 27 CW 1.660476 7.471502 -3.573170
447 27 CW 2.907193 7.815384 -3.218596
448 27 HA 3.377249 4.959306 -4.637904
449 27 HA 0.762652 8.046439 -3.400660
450 27 HA 3.202443 8.719408 -2.706767
451 27 CT 0.608829 5.494164 -4.749875
452 27 HC 0.118007 6.087880 -5.521039
453 27 HC 0.968861 4.561527 -5.184233
454 27 HC -0.102790 5.273008 -3.954396
455 27 CT 5.194585 6.756434 -3.447020
456 27 HC 5.649306 7.609999 -3.949765
457 27 HC 5.428509 6.795127 -2.383121
458 27 CT 5.743874 5.468856 -4.039324
459 27 HC 6.824884 5.437832 -3.903107
460 27 HC 5.290200 4.614611 -3.536784
461 27 HC 5.510997 5.429483 -5.103428
462 28 CF 3.102947 4.283234 -2.371313
463 28 FB 4.390700 4.595729 -2.506450
464 28 FB 2.464686 5.397301 -2.016768
465 28 FB 2.684181 3.829137 -3.551421
466 28 SB 2.847621 3.006146 -1.102857
467 28 OB 3.589669 1.886334 -1.629768
468 28 OB 3.407473 3.618658 0.077670
469 28 CF 0.390025 0.185173 -1.096820
470 28 FB -0.327917 0.469460 -0.011479
471 28 FB 1.652898 -0.107044 -0.790253
472 28 FB -0.175939 -0.776074 -1.824770
473 28 SB 0.422568 1.684739 -2.124130
474 28 OB 1.326861 1.645067 -3.247932
475 28 OB -0.864203 2.282762 -2.386498
476 28 NB 1.157605 2.822280 -1.096648
477 29 NA 11.001523 -5.735077 -24.218111
478 29 CR 10.298803 -5.449633 -25.292323
479 29 NA 9.050244 -5.209143 -24.956933
480 29 CW 10.158365 -5.675104 -23.129688
481 29 CW 8.942292 -5.347332 -23.590137
482 29 HA 10.688623 -5.417529 -26.299006
483 29 HA 10.426679 -5.857763 -22.099619
484 29 HA 8.046857 -5.216322 -23.000703
485 29 CT 12.430131 -6.061096 -24.173982
486 29 HC 12.562906 -7.058737 -23.755433
487 29 HC 12.840995 -6.033415 -25.183203
488 29 HC 12.950200 -5.333882 -23.550454
489 29 CT 7.959027 -4.855634 -25.869860
490 29 HC 7.170209 -5.604746 -25.801344
491 29 HC 7.557502 -3.879890 -25.596365
492 29 CT 8.485943 -4.804621 -27.294697
493 29 HC 7.674603 -4.541780 -27.973477
494 29 HC 9.274455 -4.055296 -27.364421
495 29 HC 8.887162 -5.780151 -27.569401
496 30 CF 10.893770 -3.121116 -25.703899
497 30 FB 9.760424 -3.219516 -26.396769
498 30 FB 10.589341 -3.327490 -24.423682
499 30 FB 11.720731 -4.055018 -26.171003
500 30 SB 11.659108 -1.482657 -25.890544
501 30 OB 11.922712 -1.417960 -27.307787
502 30 OB 10.625675 -0.596209 -25.412555
503 30 CF 15.292464 -0.618987 -26.115261
504 30 FB 15.438863 0.164722 -25.048211
505 30 FB 14.480241 -0.074302 -27.019604
506 30 FB 16.467288 -0.954329 -26.645879
507 30 SB 14.504910 -2.155486 -25.546005
508 30 OB 14.070605 -3.051599 -26.590328
509 30 OB 15.130977 -2.787206 -24.409687
510 30 NB 13.034393 -1.600544 -24.898227
511 31 NA 25.707508 -13.402944 -11.554902
512 31 CR 26.450158 -14.252998 -12.229516
513 31 NA 25.814679 -14.635517 -13.315366
514 31 CW 24.527447 -13.228059 -12.244864
515 31 CW 24.594239 -13.996222 -13.342017
516 31 HA 27.434363 -14.586894 -11.935826
517 31 HA 23.703818 -12.591926 -11.956127
518 31 HA 23.834526 -14.095201 -14.103227
519 31 CT 26.061852 -12.750212 -10.290964
520 31 HC 25.333984 -13.019763 -9.525687
521 31 HC 27.054055 -13.076094 -9.978816
522 31 HC 26.061355 -11.668772 -10.427292
523 31 CT 26.310001 -15.575984 -14.324988
524 31 HC 25.633695 -16.428228 -14.391236
525 31 HC 26.361065 -15.077236 -15.292842
526 31 CT 27.696197 -16.059529 -13.931231
527 31 HC 28.064480 -16.758785 -14.681904
528 31 HC 28.373472 -15.208028 -13.865315
529 31 HC 27.646102 -16.559020 -12.963709
530 32 CF 28.023006 -12.781763 -13.372752
531 32 FB 28.125537 -13.885507 -14.111304
532 32 FB 26.770598 -12.344609 -13.493561
533 32 FB 28.307377 -13.122962 -12.116989
534 32 SB 29.174581 -11.488925 -13.927341
535 32 OB 30.462374 -12.110996 -13.735339
536 32 OB 28.783675 -11.287656 -15.301725
537 32 CF 31.088946 -9.028732 -11.858439
538 32 FB 30.610327 -7.874470 -12.319772
539 32 FB 31.764454 -9.692264 -12.795262
540 32 FB 31.815627 -8.855835 -10.755595
541 32 SB 29.659949 -10.055529 -11.401516
542 32 OB 29.963699 -11.427710 -11.074248
543 32 OB 28.687070 -9.416971 -10.548288
544 32 NB 28.822666 -10.202022 -12.873758
545 33 NA 13.074136 3.317981 26.983461
546 33 CR 14.374575 3.336001 27.177779
547 33 NA 14.692255 4.333425 27.973672
548 33 CW 12.523192 4.362365 27.694023
549 33 CW 13.531635 4.995208 28.311141
550 33 HA 15.076422 2.636547 26.748156
551 33 HA 11.476117 4.622182 27.744318
552 33 HA 13.449612 5.860639 28.952001
553 33 CT 12.330644 2.360806 26.158723
554 33 HC 11.805146 2.894222 25.366625
555 33 HC 13.024370 1.645880 25.716312
556 33 HC 11.608831 1.829625 26.779152
557 33 CT 16.040986 4.686290 28.427069
558 33 HC 16.280694 5.698837 28.102432
559 33 HC 16.084379 4.634239 29.514960
560 33 CT 17.046603 3.713262 27.833477
561 33 HC 18.049412 3.975623 28.170585
562 33 HC 16.808121 2.700406 28.158050
563 33 HC 17.004436 3.765002 26.745522
564 34 CF 14.678950 1.585147 28.847281
565 34 FB 15.811147 2.271983 28.990842
566 34 FB 13.680288 2.403230 29.175364
567 34 FB 14.608764 1.207891 27.571752
568 34 SB 14.639435 0.116993 29.918770
569 34 OB 15.763835 -0.651307 29.441602
570 34 OB 14.792843 0.684764 31.236476
571 34 CF 13.206782 -3.261779 29.191376
572 34 FB 12.277733 -3.359060 30.140919
573 34 FB 14.434864 -3.219121 29.705396
574 34 FB 13.085882 -4.227702 28.282201
575 34 SB 12.931161 -1.682737 28.333599
576 34 OB 13.965189 -1.294622 27.404942
577 34 OB 11.579095 -1.449414 27.886691
578 34 NB 13.109867 -0.545204 29.584231
579 35 NA -1.294241 24.595745 -16.601123
580 35 CR -2.606784 24.669030 -16.568191
581 35 NA -3.058287 25.096121 -17.727053
582 35 CW -0.876808 24.998196 -17.851307
583 35 CW -1.976195 25.310039 -18.553007
584 35 HA -3.221704 24.416355 -15.717058
585 35 HA 0.143861 25.052228 -18.200184
586 35 HA -2.007610 25.662498 -19.573392
587 35 CT -0.419044 24.163674 -15.507275
588 35 HC 0.263270 24.972566 -15.246047
589 35 HC -1.023745 23.904212 -14.638299
590 35 HC 0.154989 23.292533 -15.823025
591 35 CT -4.463612 25.309829 -18.085591
592 35 HC -4.615370 26.354907 -18.355555
593 35 HC -4.723650 24.674874 -18.932533
594 35 CT -5.348522 24.959809 -16.900340
595 35 HC -6.393409 25.118705 -17.166919
596 35 HC -5.197957 23.914665 -16.629962
597 35 HC -5.089677 25.594698 -16.052983
598 36 CF -3.269332 22.344601 -16.889797
599 36 FB -4.394717 22.976833 -17.218453
600 36 FB -2.341208 22.713340 -17.771182
601 36 FB -2.953523 22.724603 -15.652830
602 36 SB -3.470722 20.538443 -16.938405
603 36 OB -4.491457 20.308668 -15.944649
604 36 OB -3.872991 20.303207 -18.304088
605 36 CF -1.983859 17.965197 -14.665666
606 36 FB -1.264370 17.245389 -15.524991
607 36 FB -3.288702 17.874065 -14.917268
608 36 FB -1.702038 17.651326 -13.402224
609 36 SB -1.514215 19.705562 -14.901646
610 36 OB -2.335413 20.667454 -14.206917
611 36 OB -0.096214 19.972050 -14.879144
612 36 NB -1.917519 19.980992 -16.529983
613 37 NA -29.978655 5.580707 -1.156718
614 37 CR -28.767095 5.962736 -0.817010
615 37 NA -28.803810 6.580890 0.343059
616 37 CW -30.844394 5.974866 -0.159567
617 37 CW -30.112208 6.598198 0.775121
618 37 HA -27.875625 5.794103 -1.402882
619 37 HA -31.911811 5.812254 -0.135542
620 37 HA -30.478944 7.032098 1.693618
621 37 CT -30.354109 4.861854 -2.377964
622 37 HC -31.065944 5.459305 -2.947564
623 37 HC -29.465060 4.682718 -2.982615
624 37 HC -30.810877 3.908298 -2.113023
625 37 CT -27.659214 7.153722 1.057846
626 37 HC -27.815109 8.223591 1.196326
627 37 HC -27.560042 6.672584 2.030867
628 37 CT -26.391673 6.927515 0.250029
629 37 HC -25.540642 7.353428 0.781487
630 37 HC -26.234528 5.857833 0.111515
631 37 HC -26.489594 7.408840 -0.723027
632 38 CF -27.787486 3.899533 0.036765
633 38 FB -26.977005 4.807784 0.577528
634 38 FB -29.002095 4.108072 0.542195
635 38 FB -27.762798 4.088047 -1.281596
636 38 SB -27.252559 2.204547 0.418868
637 38 OB -25.944383 2.143176 -0.187069
638 38 OB -27.267295 2.187529 1.861692
639 38 CF -27.387984 -0.830587 -1.764550
640 38 FB -28.183019 -1.627024 -1.051926
641 38 FB -26.241015 -0.585630 -1.133138
642 38 FB -27.183603 -1.307392 -2.991379
643 38 SB -28.248744 0.760427 -1.945900
644 38 OB -27.460659 1.829152 -2.510700
645 38 OB -29.608793 0.677223 -2.420868
646 38 NB -28.449011 1.259648 -0.333240
647 39 NA -11.228868 -20.879915 23.120427
648 39 CR -10.482637 -20.188395 22.287262
649 39 NA -9.779558 -19.298363 22.952653
650 39 CW -10.993292 -20.408942 24.393951
651 39 CW -10.090055 -19.423290 24.289391
652 39 HA -10.451821 -20.330165 21.217050
653 39 HA -11.450267 -20.766528 25.304833
654 39 HA -9.682656 -18.837632 25.100212
655 39 CT -12.152088 -21.962863 22.768226
656 39 HC -13.162053 -21.695479 23.078992
657 39 HC -12.133986 -22.120105 21.689778
658 39 HC -11.847631 -22.879344 23.273665
659 39 CT -8.830358 -18.338495 22.380962
660 39 HC -9.155509 -17.323975 22.611451
661 39 HC -7.841087 -18.507841 22.806125
662 39 CT -8.770911 -18.520450 20.873063
663 39 HC -8.065163 -17.806769 20.447998
664 39 HC -8.445229 -19.534556 20.641503
665 39 HC -9.759651 -18.350691 20.446829
666 40 CF -8.620981 -21.706296 21.868233
667 40 FB -8.089560 -20.543781 21.493564
668 40 FB -8.890205 -21.612641 23.169375
669 40 FB -9.727015 -21.881883 21.147067
670 40 SB -7.481284 -23.093339 21.581304
671 40 OB -7.295293 -23.057178 20.150797
672 40 OB -6.328152 -22.720451 22.364559
673 40 CF -8.279132 -26.571881 20.458412
674 40 FB -7.837196 -27.285639 21.492563
675 40 FB -7.285622 -25.943015 19.832562
676 40 FB -8.999645 -27.313770 19.618958
677 40 SB -9.385313 -25.292641 21.125519
678 40 OB -9.803629 -24.283640 20.182556
679 40 OB -10.413749 -25.768773 22.018753
680 40 NB -8.361468 -24.424044 22.168245
681 41 NA 21.355642 -13.865407 -21.679676
682 41 CR 21.531084 -15.137994 -21.398667
683 41 NA 22.816573 -15.403908 -21.320997
684 41 CW 22.597768 -13.278628 -21.789170
685 41 CW 23.508247 -14.237451 -21.565634
686 41 HA 20.738331 -15.856921 -21.253450
687 41 HA 22.799787 -12.241557 -22.012938
688 41 HA 24.581570 -14.117948 -21.575484
689 41 CT 20.070457 -13.180712 -21.848940
690 41 HC 20.011723 -12.760083 -22.852793
691 41 HC 19.257390 -13.892387 -21.705617
692 41 HC 19.985341 -12.379861 -21.114439
693 41 CT 23.416705 -16.708622 -21.026515
694 41 HC 24.047501 -17.015595 -21.860759
695 41 HC 24.021120 -16.635373 -20.122404
696 41 CT 22.317327 -17.737391 -20.818181
697 41 HC 22.763536 -18.707472 -20.599228
698 41 HC 21.686287 -17.431631 -19.983675
699 41 HC 21.712667 -17.811853 -21.722029
700 42 CF 21.122423 -15.204903 -18.995775
701 42 FB 21.800036 -16.338446 -19.169395
702 42 FB 21.940004 -14.205730 -19.323550
703 42 FB 20.060405 -15.256643 -19.798063
704 42 SB 20.574705 -15.002675 -17.274079
705 42 OB 19.713248 -16.144216 -17.081660
706 42 OB 21.817950 -15.035701 -16.542303
707 42 CF 17.374373 -13.540191 -16.002576
708 42 FB 17.826168 -12.513512 -15.284219
709 42 FB 17.756576 -14.708030 -15.488478
710 42 FB 16.054020 -13.482857 -16.168718
711 42 SB 18.126890 -13.410491 -17.652430
712 42 OB 17.925194 -14.549226 -18.515479
713 42 OB 18.002172 -12.121776 -18.289540
714 42 NB 19.789742 -13.495162 -17.309281
715 43 NA -2.533542 20.912207 2.490516
716 43 CR -1.273760 20.994520 2.122548
717 43 NA -0.547310 21.449842 3.119631
718 43 CW -2.623684 21.338404 3.797959
719 43 CW -1.385827 21.673467 4.190034
720 43 HA -0.892878 20.728132 1.147681
721 43 HA -3.522355 21.392356 4.394515
722 43 HA -1.099902 22.048067 5.161797
723 43 CT -3.653033 20.450160 1.664435
724 43 HC -4.389593 21.248137 1.570577
725 43 HC -3.286493 20.176526 0.675054
726 43 HC -4.116556 19.581786 2.132593
727 43 CT 0.900158 21.681671 3.103792
728 43 HC 1.102430 22.733426 3.306268
729 43 HC 1.375468 21.067073 3.868285
730 43 CT 1.458188 21.312766 1.738906
731 43 HC 2.534409 21.485136 1.727128
732 43 HC 1.256964 20.260945 1.535725
733 43 HC 0.983927 21.927297 0.973708
734 44 CF -0.521701 18.682554 2.308539
735 44 FB 0.642168 19.330074 2.327274
736 44 FB -1.199185 19.063301 3.390330
737 44 FB -1.147090 19.033442 1.186046
738 44 SB -0.291679 16.879412 2.338399
739 44 OB 0.444953 16.635859 1.121722
740 44 OB 0.448273 16.676671 3.560535
741 44 CF -2.275844 14.246783 0.569204
742 44 FB -2.743411 13.540340 1.597089
743 44 FB -0.948916 14.170798 0.481389
744 44 FB -2.866315 13.903659 -0.574402
745 44 SB -2.691888 15.988291 0.884129
746 44 OB -2.087105 16.941060 -0.015160
747 44 OB -4.072072 16.243684 1.218962
748 44 NB -1.890482 16.301754 2.350243
749 45 NA -15.348316 -13.167213 0.369508