LAMMPS data file
# Generated by Playmol on 23-Aug-2017 at 19:22:18

2 atom types
1 bond types
1 angle types

1500 atoms
1000 bonds
500 angles

-13.874745093480927 13.874745093480927 xlo xhi
-13.874745093480927 13.874745093480927 ylo yhi
-13.874745093480927 13.874745093480927 zlo zhi

Masses

1 1.008 # HW
2 15.9994 # OW

Pair Coeffs # hybrid

1 0.0000 0.0000 # HW
2 0.1520 3.1507 # OW

Bond Coeffs # 553.00

1 0.9572 # HW OW

Angle Coeffs # 100.00

1 104.52 # HW OW HW

Atoms

1 1 1 0.417 9.624138 3.568310 -0.519655 # H1
2 1 2 -0.834 10.291504 4.240470 -0.657694 # O
3 1 1 0.417 11.073788 3.752648 -0.915165 # H2
4 2 1 0.417 11.481524 -6.902921 5.323885 # H1
5 2 2 -0.834 10.957174 -6.884266 6.124474 # O
6 2 1 0.417 10.234612 -7.487978 5.952229 # H2
7 3 1 0.417 -3.500579 9.225430 12.383752 # H1
8 3 2 -0.834 -4.409139 9.518641 12.314619 # O
9 3 1 0.417 -4.916069 8.711184 12.229366 # H2
10 4 1 0.417 -12.377869 2.684682 -3.586423 # H1
11 4 2 -0.834 -11.968864 1.983403 -4.093526 # O
12 4 1 0.417 -11.086362 2.304498 -4.278785 # H2
13 5 1 0.417 12.385597 6.988665 11.459478 # H1
14 5 2 -0.834 12.349400 6.726112 12.379254 # O
15 5 1 0.417 12.380517 5.769672 12.357211 # H2
16 6 1 0.417 7.910416 -0.704875 0.848212 # H1
17 6 2 -0.834 8.714847 -0.776432 0.334400 # O
18 6 1 0.417 9.055734 -1.646408 0.542174 # H2
19 7 1 0.417 -2.059644 -12.381007 -6.981939 # H1
20 7 2 -0.834 -1.303600 -11.794241 -7.000228 # O
21 7 1 0.417 -0.545909 -12.377765 -6.959780 # H2
22 8 1 0.417 0.528200 -7.132539 12.361447 # H1
23 8 2 -0.834 0.338757 -7.934641 11.874645 # O
24 8 1 0.417 1.077588 -8.512107 12.066723 # H2
25 9 1 0.417 -12.372885 8.537019 0.720641 # H1
26 9 2 -0.834 -12.376026 8.661204 1.669746 # O
27 9 1 0.417 -12.378687 7.773544 2.027916 # H2
28 10 1 0.417 2.021578 -0.361871 -1.262482 # H1
29 10 2 -0.834 1.721196 0.536038 -1.121908 # O
30 10 1 0.417 2.499947 1.074464 -1.262893 # H2
31 11 1 0.417 -12.380228 -12.376932 -0.926169 # H1
32 11 2 -0.834 -11.803677 -12.085438 -0.219874 # O
33 11 1 0.417 -12.377442 -11.601219 0.373892 # H2
34 12 1 0.417 -12.378850 -3.413384 1.353289 # H1
35 12 2 -0.834 -11.806020 -4.177692 1.415987 # O
36 12 1 0.417 -12.377469 -4.922022 1.227177 # H2
37 13 1 0.417 8.817494 7.465099 8.602434 # H1
38 13 2 -0.834 9.740356 7.336790 8.821738 # O
39 13 1 0.417 9.950629 8.062756 9.409097 # H2
40 14 1 0.417 7.789073 9.355647 -3.545520 # H1
41 14 2 -0.834 6.999055 8.816016 -3.575534 # O
42 14 1 0.417 6.490854 9.091904 -2.812743 # H2
43 15 1 0.417 5.687618 6.424504 12.382041 # H1
44 15 2 -0.834 5.446807 5.498102 12.377490 # O
45 15 1 0.417 4.489609 5.498943 12.379480 # H2
46 16 1 0.417 -6.671071 9.706613 3.362342 # H1
47 16 2 -0.834 -6.038738 9.389276 4.007078 # O
48 16 1 0.417 -5.365054 10.068603 4.037010 # H2
49 17 1 0.417 -6.461758 -3.797879 -0.509085 # H1
50 17 2 -0.834 -6.427402 -4.659329 -0.093205 # O
51 17 1 0.417 -7.083120 -4.616142 0.602784 # H2
52 18 1 0.417 4.816006 -5.779346 3.581678 # H1
53 18 2 -0.834 5.721753 -5.470542 3.559432 # O
54 18 1 0.417 5.649428 -4.516458 3.532517 # H2
55 19 1 0.417 1.761998 -1.131534 4.189868 # H1
56 19 2 -0.834 1.492249 -0.498289 3.524685 # O
57 19 1 0.417 2.179535 -0.541148 2.859829 # H2
58 20 1 0.417 -0.734787 -12.379854 -1.737498 # H1
59 20 2 -0.834 -0.575092 -12.006281 -0.870796 # O
60 20 1 0.417 0.265062 -12.377024 -0.600753 # H2
61 21 1 0.417 3.067606 9.491899 11.632152 # H1
62 21 2 -0.834 3.890127 9.013207 11.529465 # O
63 21 1 0.417 4.323927 9.096546 12.378643 # H2
64 22 1 0.417 -11.299675 -7.678166 0.735830 # H1
65 22 2 -0.834 -11.868052 -8.446412 0.790399 # O
66 22 1 0.417 -12.377515 -8.311745 1.589488 # H2
67 23 1 0.417 0.443587 -3.484912 12.384297 # H1
68 23 2 -0.834 0.034016 -2.743837 11.937877 # O
69 23 1 0.417 0.495748 -1.975900 12.274491 # H2
70 24 1 0.417 -10.382410 -0.303349 -2.973822 # H1
71 24 2 -0.834 -10.763960 -0.740464 -3.735124 # O
72 24 1 0.417 -10.160921 -0.543828 -4.451999 # H2
73 25 1 0.417 0.497613 -7.815886 -6.370653 # H1
74 25 2 -0.834 0.457113 -8.733177 -6.100155 # O
75 25 1 0.417 -0.473797 -8.898443 -5.950740 # H2
76 26 1 0.417 -0.709402 5.657678 -4.292804 # H1
77 26 2 -0.834 -1.561379 5.797373 -3.879461 # O
78 26 1 0.417 -1.915287 4.916678 -3.755539 # H2
79 27 1 0.417 12.346926 8.686645 -2.377167 # H1
80 27 2 -0.834 12.375604 9.614446 -2.143513 # O
81 27 1 0.417 12.378542 10.073476 -2.983463 # H2
82 28 1 0.417 2.323684 -2.692638 -8.725498 # H1
83 28 2 -0.834 1.881657 -2.176188 -9.399385 # O
84 28 1 0.417 1.063026 -2.644711 -9.562361 # H2
85 29 1 0.417 -0.425958 1.161585 1.827264 # H1
86 29 2 -0.834 -0.157300 0.475705 1.216016 # O
87 29 1 0.417 -0.974129 0.177251 0.816082 # H2
88 30 1 0.417 -3.542921 -4.031240 6.847075 # H1
89 30 2 -0.834 -3.521596 -3.108913 6.591946 # O
90 30 1 0.417 -4.290192 -2.996818 6.032549 # H2
91 31 1 0.417 -8.950640 -3.130468 11.386850 # H1
92 31 2 -0.834 -8.864362 -3.324493 12.320200 # O
93 31 1 0.417 -8.960812 -4.275089 12.377626 # H2
94 32 1 0.417 -2.747589 -9.297766 1.635386 # H1
95 32 2 -0.834 -3.678053 -9.468820 1.781016 # O
96 32 1 0.417 -3.835785 -9.186703 2.681995 # H2
97 33 1 0.417 -5.892112 6.535941 3.092670 # H1
98 33 2 -0.834 -6.215475 6.587970 2.193247 # O
99 33 1 0.417 -7.100359 6.943322 2.276535 # H2
100 34 1 0.417 3.951729 2.094608 -12.377618 # H1
101 34 2 -0.834 3.607426 2.987740 -12.379406 # O
102 34 1 0.417 2.656499 2.878354 -12.381691 # H2
103 35 1 0.417 -7.338878 -10.868999 -12.382042 # H1
104 35 2 -0.834 -6.764578 -11.634767 -12.378770 # O
105 35 1 0.417 -7.361906 -12.382715 -12.376849 # H2
106 36 1 0.417 -4.189748 -6.568405 -6.014925 # H1
107 36 2 -0.834 -4.054464 -6.778145 -5.090837 # O
108 36 1 0.417 -3.276895 -7.336314 -5.082771 # H2
109 37 1 0.417 -12.378107 -2.790651 12.384701 # H1
110 37 2 -0.834 -11.847055 -3.519775 12.064399 # O
111 37 1 0.417 -12.197126 -3.707197 11.193448 # H2
112 38 1 0.417 12.378210 11.481921 6.852725 # H1
113 38 2 -0.834 12.180706 12.375450 7.133492 # O
114 38 1 0.417 12.356387 12.375706 8.074432 # H2
115 39 1 0.417 6.529129 -6.967730 -2.254003 # H1
116 39 2 -0.834 5.622329 -7.269022 -2.310292 # O
117 39 1 0.417 5.109004 -6.467520 -2.411896 # H2
118 40 1 0.417 -3.405846 12.387422 -4.612049 # H1
119 40 2 -0.834 -3.354193 11.823121 -3.840603 # O
120 40 1 0.417 -2.995355 12.386350 -3.154863 # H2
121 41 1 0.417 3.858725 3.800784 9.988368 # H1
122 41 2 -0.834 4.160968 3.116817 10.585921 # O
123 41 1 0.417 3.486919 2.439063 10.535517 # H2
124 42 1 0.417 -5.721117 10.584285 9.529776 # H1
125 42 2 -0.834 -6.451227 11.203206 9.540116 # O
126 42 1 0.417 -7.233275 10.651534 9.557187 # H2
127 43 1 0.417 6.217277 12.376365 -7.974623 # H1
128 43 2 -0.834 5.269253 12.249238 -8.010966 # O
129 43 1 0.417 5.097433 11.544899 -7.385973 # H2
130 44 1 0.417 -7.103275 -1.680433 6.394063 # H1
131 44 2 -0.834 -7.227030 -2.621706 6.516210 # O
132 44 1 0.417 -8.141558 -2.710707 6.784445 # H2
133 45 1 0.417 11.450253 1.235958 -10.212351 # H1
134 45 2 -0.834 12.376756 1.397244 -10.390711 # O
135 45 1 0.417 12.382401 1.866513 -11.224969 # H2
136 46 1 0.417 0.722583 -9.462907 -1.790945 # H1
137 46 2 -0.834 1.282211 -9.580205 -1.023293 # O
138 46 1 0.417 0.718538 -9.364900 -0.280226 # H2
139 47 1 0.417 9.455429 -4.047008 6.523413 # H1
140 47 2 -0.834 9.790595 -4.338038 7.371468 # O
141 47 1 0.417 9.175908 -5.015755 7.652701 # H2
142 48 1 0.417 6.925611 2.337478 -11.437764 # H1
143 48 2 -0.834 6.412175 2.114441 -10.661317 # O
144 48 1 0.417 6.933438 1.449237 -10.211852 # H2
145 49 1 0.417 -0.362270 0.074378 -8.257947 # H1
146 49 2 -0.834 0.525605 0.041325 -7.901833 # O
147 49 1 0.417 0.889803 0.907500 -8.084406 # H2
148 50 1 0.417 -2.653854 12.376396 2.742335 # H1
149 50 2 -0.834 -2.986675 11.790346 3.422047 # O
150 50 1 0.417 -3.235098 12.372384 4.140203 # H2
151 51 1 0.417 -7.362493 7.523934 -3.679337 # H1
152 51 2 -0.834 -8.072616 8.076967 -4.005085 # O
153 51 1 0.417 -8.156901 8.769899 -3.350124 # H2
154 52 1 0.417 -7.462122 11.608645 12.390811 # H1
155 52 2 -0.834 -6.912827 12.381573 12.260087 # O
156 52 1 0.417 -6.018184 12.063444 12.381081 # H2
157 53 1 0.417 -5.886789 -12.379274 -5.818896 # H1
158 53 2 -0.834 -5.111194 -12.390798 -5.258047 # O
159 53 1 0.417 -5.459452 -12.376461 -4.366563 # H2
160 54 1 0.417 9.403951 9.031738 3.175030 # H1
161 54 2 -0.834 9.646314 9.756084 3.751933 # O
162 54 1 0.417 9.884642 9.335488 4.578087 # H2
163 55 1 0.417 9.773085 -6.203369 -8.673232 # H1
164 55 2 -0.834 9.320063 -5.991868 -9.489485 # O
165 55 1 0.417 9.125877 -5.057083 -9.420925 # H2
166 56 1 0.417 2.336253 3.284346 0.759261 # H1
167 56 2 -0.834 1.916955 3.502615 1.591595 # O
168 56 1 0.417 1.022282 3.745436 1.353205 # H2
169 57 1 0.417 -3.850310 -10.725984 -9.611485 # H1
170 57 2 -0.834 -3.153778 -11.382210 -9.590435 # O
171 57 1 0.417 -3.614571 -12.219818 -9.542319 # H2
172 58 1 0.417 -2.441827 5.790512 2.806723 # H1
173 58 2 -0.834 -2.470627 4.840767 2.691015 # O
174 58 1 0.417 -1.737676 4.647899 2.106363 # H2
175 59 1 0.417 7.481730 12.380087 5.020625 # H1
176 59 2 -0.834 6.754747 12.111744 5.582515 # O
177 59 1 0.417 5.970428 12.388750 5.108866 # H2
178 60 1 0.417 -5.670846 -0.944148 9.654393 # H1
179 60 2 -0.834 -5.895333 -1.801918 9.293745 # O
180 60 1 0.417 -5.062438 -2.157262 8.983507 # H2
181 61 1 0.417 -2.129349 -0.527576 12.376069 # H1
182 61 2 -0.834 -2.973870 -0.978148 12.374906 # O
183 61 1 0.417 -3.621787 -0.273566 12.374371 # H2
184 62 1 0.417 -1.984035 -5.282276 12.378007 # H1
185 62 2 -0.834 -2.854354 -4.883845 12.383435 # O
186 62 1 0.417 -2.696352 -3.959542 12.191261 # H2
187 63 1 0.417 11.873656 5.760101 -5.140921 # H1
188 63 2 -0.834 12.378028 6.221993 -4.471222 # O
189 63 1 0.417 12.364643 5.636346 -3.714208 # H2
190 64 1 0.417 12.375901 -1.019581 0.117110 # H1
191 64 2 -0.834 11.798711 -0.257151 0.159348 # O
192 64 1 0.417 12.375091 0.489508 -0.003495 # H2
193 65 1 0.417 9.397524 0.920891 -12.377259 # H1
194 65 2 -0.834 8.927234 0.089053 -12.321545 # O
195 65 1 0.417 9.195750 -0.282634 -11.481319 # H2
196 66 1 0.417 -0.486633 1.000541 10.384682 # H1
197 66 2 -0.834 0.060248 0.677193 9.668722 # O
198 66 1 0.417 0.935748 1.009854 9.866378 # H2
199 67 1 0.417 -9.908268 4.716079 -2.938748 # H1
200 67 2 -0.834 -9.594095 5.558373 -3.267483 # O
201 67 1 0.417 -9.421156 5.404125 -4.196209 # H2
202 68 1 0.417 5.803820 -0.298245 -1.568692 # H1
203 68 2 -0.834 4.945304 -0.534208 -1.920123 # O
204 68 1 0.417 5.029506 -1.457073 -2.159834 # H2
205 69 1 0.417 -6.323769 8.328482 -12.378171 # H1
206 69 2 -0.834 -6.909340 9.025713 -12.082862 # O
207 69 1 0.417 -6.501924 9.831704 -12.400074 # H2
208 70 1 0.417 -6.825932 1.909069 -6.403740 # H1
209 70 2 -0.834 -6.246048 1.173901 -6.205010 # O
210 70 1 0.417 -6.818411 0.517210 -5.808285 # H2
211 71 1 0.417 -7.817674 -2.113349 -6.847646 # H1
212 71 2 -0.834 -8.673683 -2.504029 -7.023289 # O
213 71 1 0.417 -8.487973 -3.430698 -7.175040 # H2
214 72 1 0.417 9.832082 6.612791 -2.436717 # H1
215 72 2 -0.834 9.858974 7.215220 -3.180079 # O
216 72 1 0.417 9.320365 6.794010 -3.849941 # H2
217 73 1 0.417 9.425185 -5.163679 -1.895361 # H1
218 73 2 -0.834 8.847013 -4.868297 -1.192013 # O
219 73 1 0.417 9.423851 -4.401787 -0.587150 # H2
220 74 1 0.417 -6.367018 12.387870 -5.091793 # H1
221 74 2 -0.834 -7.224458 11.962676 -5.076328 # O
222 74 1 0.417 -7.028978 11.032251 -4.965293 # H2
223 75 1 0.417 -9.429385 -9.368179 2.431156 # H1
224 75 2 -0.834 -9.868321 -9.021933 3.208125 # O
225 75 1 0.417 -10.489822 -9.705888 3.457470 # H2
226 76 1 0.417 1.736946 4.027132 12.383189 # H1
227 76 2 -0.834 0.808566 3.794026 12.381023 # O
228 76 1 0.417 0.801473 2.836862 12.376759 # H2
229 77 1 0.417 5.155803 7.085204 -5.189714 # H1
230 77 2 -0.834 5.373836 6.153179 -5.185088 # O
231 77 1 0.417 6.330358 6.130612 -5.157031 # H2
232 78 1 0.417 7.158139 8.283051 -7.075392 # H1
233 78 2 -0.834 7.655450 8.866492 -6.502233 # O
234 78 1 0.417 7.426214 9.747173 -6.799023 # H2
235 79 1 0.417 4.300120 -0.415443 -9.175408 # H1
236 79 2 -0.834 4.211391 0.235077 -9.871959 # O
237 79 1 0.417 3.293734 0.504582 -9.833160 # H2
238 80 1 0.417 8.498495 6.287998 11.343205 # H1
239 80 2 -0.834 9.264130 5.720915 11.435139 # O
240 80 1 0.417 9.383970 5.630896 12.380532 # H2
241 81 1 0.417 6.000165 -6.166576 -12.139451 # H1
242 81 2 -0.834 6.119118 -6.656721 -11.325915 # O
243 81 1 0.417 6.537139 -6.035027 -10.730107 # H2
244 82 1 0.417 -1.271474 3.540648 -6.342383 # H1
245 82 2 -0.834 -0.618449 2.840938 -6.356393 # O
246 82 1 0.417 0.221712 3.297598 -6.399096 # H2
247 83 1 0.417 1.658753 5.518356 4.441707 # H1
248 83 2 -0.834 1.287638 6.285718 4.006207 # O
249 83 1 0.417 0.658393 5.925951 3.381027 # H2
250 84 1 0.417 -0.424859 12.375062 5.189951 # H1
251 84 2 -0.834 -0.086738 12.387703 4.294548 # O
252 84 1 0.417 0.000054 11.464329 4.057736 # H2
253 85 1 0.417 12.374844 -4.849299 -1.055435 # H1
254 85 2 -0.834 12.377385 -3.925111 -0.806233 # O
255 85 1 0.417 12.374761 -3.452150 -1.638419 # H2
256 86 1 0.417 9.559236 12.379574 1.015946 # H1
257 86 2 -0.834 9.102044 11.813331 1.637699 # O
258 86 1 0.417 8.924606 12.377407 2.390404 # H2
259 87 1 0.417 3.120859 12.143225 1.070488 # H1
260 87 2 -0.834 2.838780 12.387253 1.952028 # O
261 87 1 0.417 1.882589 12.379622 1.908758 # H2
262 88 1 0.417 -6.149432 0.291361 4.344411 # H1
263 88 2 -0.834 -5.705916 1.136316 4.269722 # O
264 88 1 0.417 -6.414387 1.770159 4.157727 # H2
265 89 1 0.417 -5.884400 11.619681 6.551374 # H1
266 89 2 -0.834 -5.169576 12.244506 6.429501 # O
267 89 1 0.417 -4.831368 12.397330 7.311823 # H2
268 90 1 0.417 -8.258867 11.387191 -8.087890 # H1
269 90 2 -0.834 -8.035742 12.306821 -7.943920 # O
270 90 1 0.417 -7.118516 12.375551 -8.208882 # H2
271 91 1 0.417 0.002451 5.136641 -12.380506 # H1
272 91 2 -0.834 0.775520 5.686518 -12.253108 # O
273 91 1 0.417 1.194463 5.333439 -11.468217 # H2
274 92 1 0.417 -7.527846 1.276700 -9.564670 # H1
275 92 2 -0.834 -6.941053 0.659231 -9.128049 # O
276 92 1 0.417 -6.106219 0.756688 -9.586074 # H2
277 93 1 0.417 -5.147110 -2.732045 -5.536026 # H1
278 93 2 -0.834 -4.784238 -3.176659 -6.302104 # O
279 93 1 0.417 -5.412958 -3.871799 -6.496328 # H2
280 94 1 0.417 -1.467281 2.512723 4.295037 # H1
281 94 2 -0.834 -0.567258 2.470979 4.618220 # O
282 94 1 0.417 -0.091152 3.107880 4.085384 # H2
283 95 1 0.417 12.207160 12.377597 -4.896886 # H1
284 95 2 -0.834 12.377633 11.796947 -5.638517 # O
285 95 1 0.417 12.389148 12.377064 -6.399808 # H2
286 96 1 0.417 8.041633 -10.293977 -9.572497 # H1
287 96 2 -0.834 8.013956 -9.373026 -9.831949 # O
288 96 1 0.417 7.262353 -9.312286 -10.421555 # H2
289 97 1 0.417 6.625557 -3.404993 -9.288274 # H1
290 97 2 -0.834 5.684513 -3.456619 -9.455616 # O
291 97 1 0.417 5.279047 -3.197794 -8.628066 # H2
292 98 1 0.417 1.619878 3.535081 6.692082 # H1
293 98 2 -0.834 1.853390 2.622824 6.863808 # O
294 98 1 0.417 2.265911 2.639172 7.727400 # H2
295 99 1 0.417 7.420148 -9.401691 11.293971 # H1
296 99 2 -0.834 7.638385 -9.729781 12.166302 # O
297 99 1 0.417 8.456408 -9.286724 12.391625 # H2
298 100 1 0.417 9.563495 -10.874461 -1.366954 # H1
299 100 2 -0.834 8.912116 -11.569434 -1.272346 # O
300 100 1 0.417 9.421618 -12.379619 -1.287797 # H2
301 101 1 0.417 -2.233366 -1.230290 9.352918 # H1
302 101 2 -0.834 -1.688316 -1.975765 9.604752 # O
303 101 1 0.417 -2.128400 -2.734886 9.222270 # H2
304 102 1 0.417 12.375627 1.235362 -7.308716 # H1
305 102 2 -0.834 12.188224 0.308416 -7.456644 # O
306 102 1 0.417 12.392200 -0.113813 -6.622168 # H2
307 103 1 0.417 -6.945123 -2.526067 3.520193 # H1
308 103 2 -0.834 -5.994443 -2.609394 3.594337 # O
309 103 1 0.417 -5.754202 -3.234127 2.910068 # H2
310 104 1 0.417 -5.411087 -9.629960 10.087672 # H1
311 104 2 -0.834 -6.283063 -9.760215 10.460394 # O
312 104 1 0.417 -6.264212 -9.280465 11.288474 # H2
313 105 1 0.417 -1.348856 10.907167 7.998379 # H1
314 105 2 -0.834 -2.047368 11.291878 7.468937 # O
315 105 1 0.417 -2.293282 10.598991 6.856021 # H2
316 106 1 0.417 3.778896 -5.885788 9.231870 # H1
317 106 2 -0.834 3.968524 -6.549598 9.894915 # O
318 106 1 0.417 4.923873 -6.606957 9.910721 # H2
319 107 1 0.417 11.774928 4.046483 -8.166855 # H1
320 107 2 -0.834 12.391985 4.521389 -8.723576 # O
321 107 1 0.417 11.964438 4.557569 -9.579220 # H2
322 108 1 0.417 9.404627 8.982574 -8.936464 # H1
323 108 2 -0.834 9.793511 9.819059 -9.191993 # O
324 108 1 0.417 9.054680 10.426660 -9.226379 # H2
325 109 1 0.417 -9.128213 4.717945 12.366716 # H1
326 109 2 -0.834 -8.907521 4.716995 11.435305 # O
327 109 1 0.417 -9.083835 5.612226 11.145984 # H2
328 110 1 0.417 0.832454 -12.389005 -4.295316 # H1
329 110 2 -0.834 0.541749 -11.477190 -4.313095 # O
330 110 1 0.417 1.351623 -10.966975 -4.309030 # H2
331 111 1 0.417 -12.367469 5.613052 -5.598596 # H1
332 111 2 -0.834 -12.385183 5.489939 -4.649511 # O
333 111 1 0.417 -12.320478 6.375273 -4.291421 # H2
334 112 1 0.417 -7.182074 -8.107853 -9.713880 # H1
335 112 2 -0.834 -6.350630 -7.687629 -9.494003 # O
336 112 1 0.417 -5.744637 -8.414690 -9.351220 # H2
337 113 1 0.417 6.466705 -5.455285 -7.049645 # H1
338 113 2 -0.834 7.198368 -6.065821 -7.139907 # O
339 113 1 0.417 6.920043 -6.674439 -7.824269 # H2
340 114 1 0.417 8.425507 1.193538 -1.909455 # H1
341 114 2 -0.834 9.180168 1.017262 -2.471279 # O
342 114 1 0.417 9.910230 0.901390 -1.863154 # H2
343 115 1 0.417 1.112753 8.563648 6.017840 # H1
344 115 2 -0.834 0.387271 9.071145 6.381645 # O
345 115 1 0.417 -0.174584 8.419708 6.801384 # H2
346 116 1 0.417 -10.926392 0.566012 3.189659 # H1
347 116 2 -0.834 -10.372892 1.335083 3.054014 # O
348 116 1 0.417 -9.545454 0.980824 2.728315 # H2
349 117 1 0.417 3.188714 -8.743953 4.396122 # H1
350 117 2 -0.834 2.800077 -7.959075 4.009910 # O
351 117 1 0.417 2.183951 -7.645671 4.672027 # H2
352 118 1 0.417 -3.016413 -8.098667 12.345906 # H1
353 118 2 -0.834 -3.005857 -8.911772 11.840951 # O
354 118 1 0.417 -3.483806 -9.538092 12.384569 # H2
355 119 1 0.417 12.180528 -4.456160 -4.458673 # H1
356 119 2 -0.834 12.387446 -5.283343 -4.023717 # O
357 119 1 0.417 11.544249 -5.728932 -3.941859 # H2
358 120 1 0.417 10.148312 -6.809659 12.363292 # H1
359 120 2 -0.834 10.690308 -7.371121 11.809006 # O
360 120 1 0.417 11.411317 -7.644251 12.376261 # H2
361 121 1 0.417 -4.476773 2.719148 -4.337495 # H1
362 121 2 -0.834 -3.621953 2.454313 -3.997822 # O
363 121 1 0.417 -3.615534 1.500769 -4.081147 # H2
364 122 1 0.417 -0.495877 -1.127439 6.909522 # H1
365 122 2 -0.834 -0.149604 -0.405583 6.384878 # O
366 122 1 0.417 -0.744846 -0.344843 5.637730 # H2
367 123 1 0.417 8.329454 -7.842782 8.296267 # H1
368 123 2 -0.834 7.910079 -7.409981 9.039934 # O
369 123 1 0.417 8.631050 -7.201375 9.634001 # H2
370 124 1 0.417 3.109594 -3.906477 -11.520091 # H1
371 124 2 -0.834 3.506795 -4.032891 -12.381765 # O
372 124 1 0.417 4.379376 -3.647433 -12.302679 # H2
373 125 1 0.417 8.260665 9.954060 7.023081 # H1
374 125 2 -0.834 8.842704 10.692384 7.202918 # O
375 125 1 0.417 9.684066 10.288467 7.415505 # H2
376 126 1 0.417 7.924642 -10.549843 2.726351 # H1
377 126 2 -0.834 8.510933 -11.209828 2.356329 # O
378 126 1 0.417 8.932931 -10.769422 1.618635 # H2
379 127 1 0.417 9.978720 1.578281 1.697067 # H1
380 127 2 -0.834 10.381420 2.203667 2.299526 # O
381 127 1 0.417 10.000904 1.994286 3.152520 # H2
382 128 1 0.417 -6.387129 6.074052 12.376547 # H1
383 128 2 -0.834 -5.480586 5.767517 12.355410 # O
384 128 1 0.417 -5.389079 5.347726 11.500053 # H2
385 129 1 0.417 5.783092 -12.375792 1.687583 # H1
386 129 2 -0.834 5.654110 -12.380108 0.739123 # O
387 129 1 0.417 6.539938 -12.377575 0.376448 # H2
388 130 1 0.417 5.651342 -0.644067 4.557624 # H1
389 130 2 -0.834 4.745574 -0.922651 4.422691 # O
390 130 1 0.417 4.807892 -1.649948 3.803509 # H2
391 131 1 0.417 -9.454335 -7.228532 -11.632000 # H1
392 131 2 -0.834 -9.782042 -7.756822 -12.359839 # O
393 131 1 0.417 -9.205656 -8.520749 -12.380484 # H2
394 132 1 0.417 0.979654 -4.941787 9.754126 # H1
395 132 2 -0.834 0.044056 -4.748883 9.693485 # O
396 132 1 0.417 -0.385245 -5.588391 9.858286 # H2
397 133 1 0.417 12.379662 -11.025011 -4.422528 # H1
398 133 2 -0.834 11.798008 -10.267429 -4.485613 # O
399 133 1 0.417 12.381241 -9.532061 -4.673514 # H2
400 134 1 0.417 -5.472601 -1.033416 0.106395 # H1
401 134 2 -0.834 -5.142444 -0.536710 0.855068 # O
402 134 1 0.417 -5.880776 -0.499995 1.463137 # H2
403 135 1 0.417 -6.805917 -5.153001 4.962231 # H1
404 135 2 -0.834 -6.671100 -5.787897 5.665768 # O
405 135 1 0.417 -7.528125 -6.196331 5.787928 # H2
406 136 1 0.417 -9.301376 9.209177 12.375439 # H1
407 136 2 -0.834 -8.828257 8.384905 12.261577 # O
408 136 1 0.417 -7.914241 8.646283 12.149825 # H2
409 137 1 0.417 6.845637 3.162035 -6.595357 # H1
410 137 2 -0.834 6.195282 3.750731 -6.978381 # O
411 137 1 0.417 6.107199 3.454254 -7.884237 # H2
412 138 1 0.417 6.571361 2.110971 12.375748 # H1
413 138 2 -0.834 6.850473 2.890477 11.895437 # O
414 138 1 0.417 7.613315 3.209252 12.377813 # H2
415 139 1 0.417 -11.706456 8.403289 -6.480110 # H1
416 139 2 -0.834 -10.887889 8.738065 -6.113907 # O
417 139 1 0.417 -10.368188 7.954990 -5.932421 # H2
418 140 1 0.417 12.208851 -12.375828 10.332448 # H1
419 140 2 -0.834 12.384131 -11.797768 9.589914 # O
420 140 1 0.417 12.375538 -12.376790 8.827752 # H2
421 141 1 0.417 1.911300 12.375039 -8.346052 # H1
422 141 2 -0.834 1.175062 12.246125 -8.944022 # O
423 141 1 0.417 1.221849 11.321306 -9.186409 # H2
424 142 1 0.417 -3.070940 8.817155 1.619886 # H1
425 142 2 -0.834 -3.923919 8.504448 1.921336 # O
426 142 1 0.417 -4.556681 8.962778 1.368365 # H2
427 143 1 0.417 -8.554958 0.483721 8.819678 # H1
428 143 2 -0.834 -8.525413 -0.469837 8.741658 # O
429 143 1 0.417 -9.416276 -0.754970 8.944866 # H2
430 144 1 0.417 1.159114 8.308329 -10.788595 # H1
431 144 2 -0.834 1.765417 8.508077 -10.075343 # O
432 144 1 0.417 2.215269 7.680734 -9.903973 # H2
433 145 1 0.417 -1.058374 2.514039 7.577262 # H1
434 145 2 -0.834 -1.776128 1.934019 7.323024 # O
435 145 1 0.417 -2.502492 2.524474 7.123047 # H2
436 146 1 0.417 -8.928091 -10.833487 -7.027544 # H1
437 146 2 -0.834 -9.580947 -11.357666 -7.491490 # O
438 146 1 0.417 -9.504205 -12.231186 -7.107687 # H2
439 147 1 0.417 -11.839278 10.811360 4.874311 # H1
440 147 2 -0.834 -12.391890 11.409869 5.376943 # O
441 147 1 0.417 -12.294059 12.254003 4.936376 # H2
442 148 1 0.417 -4.266021 3.689310 4.994378 # H1
443 148 2 -0.834 -4.604396 4.584433 4.972264 # O
444 148 1 0.417 -5.490274 4.514974 5.328110 # H2
445 149 1 0.417 12.268421 -0.230514 11.977580 # H1
446 149 2 -0.834 12.377789 -1.094517 12.374781 # O
447 149 1 0.417 11.496602 -1.468252 12.382790 # H2
448 150 1 0.417 11.849614 -8.079426 -2.103159 # H1
449 150 2 -0.834 11.848828 -8.932716 -1.669422 # O
450 150 1 0.417 12.386185 -8.805036 -0.887644 # H2
451 151 1 0.417 1.018409 -8.415306 7.326801 # H1
452 151 2 -0.834 1.562298 -7.710353 7.678167 # O
453 151 1 0.417 1.355024 -7.690240 8.612439 # H2
454 152 1 0.417 -7.703989 -7.677032 0.652726 # H1
455 152 2 -0.834 -8.391493 -7.289258 0.111245 # O
456 152 1 0.417 -7.975485 -7.146449 -0.738916 # H2
457 153 1 0.417 -1.836994 -12.382667 1.824404 # H1
458 153 2 -0.834 -2.348238 -12.360540 2.633337 # O
459 153 1 0.417 -3.259666 -12.385970 2.341985 # H2
460 154 1 0.417 2.992126 6.062136 8.210904 # H1
461 154 2 -0.834 2.566845 6.311946 7.390561 # O
462 154 1 0.417 3.275700 6.658281 6.848519 # H2
463 155 1 0.417 9.237468 -5.964012 3.568468 # H1
464 155 2 -0.834 9.000049 -6.545917 2.846492 # O
465 155 1 0.417 8.392467 -6.032363 2.314197 # H2
466 156 1 0.417 6.320316 -10.084354 -1.545182 # H1
467 156 2 -0.834 5.686688 -10.537637 -2.101313 # O
468 156 1 0.417 6.166469 -11.289943 -2.447835 # H2
469 157 1 0.417 -3.157950 -5.984440 0.924044 # H1
470 157 2 -0.834 -4.049580 -5.952889 1.270789 # O
471 157 1 0.417 -4.481511 -6.718655 0.892278 # H2
472 158 1 0.417 2.453328 6.286504 0.610942 # H1
473 158 2 -0.834 2.273622 7.117520 1.050657 # O
474 158 1 0.417 2.209373 7.755908 0.340330 # H2
475 159 1 0.417 -8.914425 4.756219 -7.080968 # H1
476 159 2 -0.834 -9.397457 5.521392 -7.393093 # O
477 159 1 0.417 -8.718664 6.140830 -7.660988 # H2
478 160 1 0.417 2.750153 -0.275774 7.209613 # H1
479 160 2 -0.834 3.693475 -0.139787 7.120817 # O
480 160 1 0.417 4.080228 -0.985623 7.347124 # H2
481 161 1 0.417 -11.374984 -1.763399 -12.378599 # H1
482 161 2 -0.834 -12.113173 -2.372746 -12.376163 # O
483 161 1 0.417 -12.382159 -2.420203 -11.458761 # H2
484 162 1 0.417 7.172293 5.238443 -2.199573 # H1
485 162 2 -0.834 6.877117 6.148958 -2.207657 # O
486 162 1 0.417 5.921889 6.091778 -2.185253 # H2
487 163 1 0.417 -2.618907 -3.611247 -4.181579 # H1
488 163 2 -0.834 -2.176056 -3.867314 -4.990619 # O
489 163 1 0.417 -1.813574 -4.732948 -4.802161 # H2
490 164 1 0.417 7.992502 -3.936224 -12.375241 # H1
491 164 2 -0.834 8.530775 -3.203582 -12.075691 # O
492 164 1 0.417 9.413946 -3.566476 -12.008252 # H2
493 165 1 0.417 -4.298039 2.673993 9.521578 # H1
494 165 2 -0.834 -4.306503 1.727347 9.663076 # O
495 165 1 0.417 -3.389315 1.499105 9.814416 # H2
496 166 1 0.417 3.099318 -9.615888 1.527173 # H1
497 166 2 -0.834 3.951935 -9.968105 1.271792 # O
498 166 1 0.417 3.983444 -9.855217 0.321794 # H2
499 167 1 0.417 5.525706 11.579076 8.266091 # H1
500 167 2 -0.834 5.859418 12.270132 8.838200 # O
501 167 1 0.417 6.771134 12.384356 8.569947 # H2
502 168 1 0.417 12.370928 -5.431025 8.442429 # H1
503 168 2 -0.834 12.377024 -6.344087 8.729679 # O
504 168 1 0.417 11.489231 -6.500320 9.051622 # H2
505 169 1 0.417 6.694724 -0.902433 12.378489 # H1
506 169 2 -0.834 6.863448 -1.844645 12.378325 # O
507 169 1 0.417 5.993632 -2.244209 12.377903 # H2
508 170 1 0.417 8.353451 12.379352 -11.392950 # H1
509 170 2 -0.834 8.164975 12.369881 -12.331363 # O
510 170 1 0.417 7.209300 12.380576 -12.384320 # H2
511 171 1 0.417 10.990770 1.402034 9.074227 # H1
512 171 2 -0.834 11.868756 1.334242 9.449427 # O
513 171 1 0.417 12.381054 1.994078 8.982095 # H2
514 172 1 0.417 -5.326761 -0.995719 -2.889500 # H1
515 172 2 -0.834 -6.187749 -1.014817 -3.307312 # O
516 172 1 0.417 -6.805546 -1.093508 -2.580423 # H2
517 173 1 0.417 -3.118933 1.227623 -8.523238 # H1
518 173 2 -0.834 -3.710148 1.018178 -7.800168 # O
519 173 1 0.417 -3.400218 1.557699 -7.072781 # H2
520 174 1 0.417 3.234835 -12.383073 11.977249 # H1
521 174 2 -0.834 2.282353 -12.289171 11.991051 # O
522 174 1 0.417 2.133457 -11.345177 11.936869 # H2
523 175 1 0.417 12.233156 -12.383713 -0.241428 # H1
524 175 2 -0.834 12.390246 -11.803139 -0.986068 # O
525 175 1 0.417 12.385807 -12.383020 -1.747613 # H2
526 176 1 0.417 -7.486885 8.758389 -6.867291 # H1
527 176 2 -0.834 -6.549793 8.890719 -7.010743 # O
528 176 1 0.417 -6.130705 8.476807 -6.256241 # H2
529 177 1 0.417 6.887858 -12.377634 10.675869 # H1
530 177 2 -0.834 6.100104 -12.091026 11.137963 # O
531 177 1 0.417 6.234087 -12.377751 12.041328 # H2
532 178 1 0.417 0.754343 -7.278074 1.924130 # H1
533 178 2 -0.834 0.428154 -6.487794 1.493677 # O
534 178 1 0.417 -0.270703 -6.798948 0.918340 # H2
535 179 1 0.417 12.379699 8.319078 -9.439237 # H1
536 179 2 -0.834 12.016901 7.513640 -9.070619 # O
537 179 1 0.417 12.375993 7.472325 -8.184291 # H2
538 180 1 0.417 -0.298709 6.614357 -0.844852 # H1
539 180 2 -0.834 -0.493278 6.479769 0.082650 # O
540 180 1 0.417 -0.761257 7.342418 0.399283 # H2
541 181 1 0.417 -8.992632 0.059559 -12.379680 # H1
542 181 2 -0.834 -9.416093 0.716641 -11.827271 # O
543 181 1 0.417 -9.477087 1.493849 -12.382662 # H2
544 182 1 0.417 -9.421152 8.616208 9.293770 # H1
545 182 2 -0.834 -9.715656 7.723942 9.111121 # O
546 182 1 0.417 -9.941474 7.731428 8.180969 # H2
547 183 1 0.417 -8.613472 12.383862 7.534132 # H1
548 183 2 -0.834 -9.241278 11.798792 7.110121 # O
549 183 1 0.417 -9.909803 12.382913 6.752198 # H2
550 184 1 0.417 8.164298 7.144851 5.692035 # H1
551 184 2 -0.834 7.563767 6.402483 5.759002 # O
552 184 1 0.417 7.309400 6.217267 4.854997 # H2
553 185 1 0.417 5.920787 2.693866 -1.220558 # H1
554 185 2 -0.834 5.007250 2.688489 -0.934808 # O
555 185 1 0.417 4.718407 3.595299 -1.037267 # H2
556 186 1 0.417 6.682939 12.375868 -0.044784 # H1
557 186 2 -0.834 6.283830 11.802453 0.609539 # O
558 186 1 0.417 6.106121 12.376086 1.354922 # H2
559 187 1 0.417 -2.289748 -2.755749 0.063902 # H1
560 187 2 -0.834 -2.754114 -2.350841 0.796463 # O
561 187 1 0.417 -3.411681 -2.998176 1.051014 # H2
562 188 1 0.417 -7.587816 -11.734374 8.494744 # H1
563 188 2 -0.834 -6.812670 -12.203897 8.802848 # O
564 188 1 0.417 -6.305343 -12.376107 8.009631 # H2
565 189 1 0.417 -3.107464 -4.422608 3.672917 # H1
566 189 2 -0.834 -2.275008 -4.223981 4.101632 # O
567 189 1 0.417 -1.922976 -3.481897 3.610087 # H2
568 190 1 0.417 3.686209 -4.088130 11.853755 # H1
569 190 2 -0.834 3.749739 -4.884674 12.380739 # O
570 190 1 0.417 2.866529 -5.253386 12.365807 # H2
571 191 1 0.417 -3.491561 -11.411224 -0.497223 # H1
572 191 2 -0.834 -3.633336 -12.343092 -0.663818 # O
573 191 1 0.417 -3.909122 -12.383941 -1.579517 # H2
574 192 1 0.417 12.385171 -4.026650 11.092517 # H1
575 192 2 -0.834 12.377688 -4.918300 11.440563 # O
576 192 1 0.417 12.379709 -4.804943 12.391025 # H2
577 193 1 0.417 9.978287 9.738895 -0.344298 # H1
578 193 2 -0.834 9.275073 9.486915 -0.942820 # O
579 193 1 0.417 8.484196 9.861770 -0.555226 # H2
580 194 1 0.417 6.560590 4.323384 1.215538 # H1
581 194 2 -0.834 7.015051 4.151879 2.040331 # O
582 194 1 0.417 7.726008 3.556411 1.803287 # H2
583 195 1 0.417 12.374856 -4.629808 -10.677180 # H1
584 195 2 -0.834 12.375687 -5.367478 -11.287160 # O
585 195 1 0.417 12.380197 -4.961931 -12.154191 # H2
586 196 1 0.417 -5.994441 -0.603373 -12.375231 # H1
587 196 2 -0.834 -6.365141 -1.263674 -11.789726 # O
588 196 1 0.417 -6.739745 -1.921105 -12.375975 # H2
589 197 1 0.417 -5.216124 3.760039 2.149965 # H1
590 197 2 -0.834 -5.643232 3.113099 1.588468 # O
591 197 1 0.417 -5.033142 2.375905 1.564656 # H2
592 198 1 0.417 1.249697 -5.388321 -7.964530 # H1
593 198 2 -0.834 0.380407 -5.548808 -8.331696 # O
594 198 1 0.417 0.521816 -5.581544 -9.277827 # H2
595 199 1 0.417 -9.652870 -10.012154 -0.490387 # H1
596 199 2 -0.834 -9.425101 -9.823443 -1.400740 # O
597 199 1 0.417 -10.015748 -10.373854 -1.914953 # H2
598 200 1 0.417 -7.085397 1.842201 -3.130337 # H1