ITEM: TIMESTEP
0
ITEM: NUMBER OF ATOMS
1500
ITEM: BOX BOUNDS pp pp pp
-13.874745093480927 13.874745093480927
-13.874745093480927 13.874745093480927
-13.874745093480927 13.874745093480927
ITEM: ATOMS id mol type x y z
1 1 OW 10.291504 4.240470 -0.657694
2 1 HW 9.624138 3.568310 -0.519655
3 1 HW 11.073788 3.752648 -0.915165
4 2 OW 10.957174 -6.884266 6.124474
5 2 HW 11.481524 -6.902921 5.323885
6 2 HW 10.234612 -7.487978 5.952229
7 3 OW -4.409139 9.518641 12.314619
8 3 HW -3.500579 9.225430 12.383752
9 3 HW -4.916069 8.711184 12.229366
10 4 OW -11.968864 1.983403 -4.093526
11 4 HW -12.377869 2.684682 -3.586423
12 4 HW -11.086362 2.304498 -4.278785
13 5 OW 12.349400 6.726112 12.379254
14 5 HW 12.385597 6.988665 11.459478
15 5 HW 12.380517 5.769672 12.357211
16 6 OW 8.714847 -0.776432 0.334400
17 6 HW 7.910416 -0.704875 0.848212
18 6 HW 9.055734 -1.646408 0.542174
19 7 OW -1.303600 -11.794241 -7.000228
20 7 HW -2.059644 -12.381007 -6.981939
21 7 HW -0.545909 -12.377765 -6.959780
22 8 OW 0.338757 -7.934641 11.874645
23 8 HW 0.528200 -7.132539 12.361447
24 8 HW 1.077588 -8.512107 12.066723
25 9 OW -12.376026 8.661204 1.669746
26 9 HW -12.372885 8.537019 0.720641
27 9 HW -12.378687 7.773544 2.027916
28 10 OW 1.721196 0.536038 -1.121908
29 10 HW 2.021578 -0.361871 -1.262482
30 10 HW 2.499947 1.074464 -1.262893
31 11 OW -11.803677 -12.085438 -0.219874
32 11 HW -12.380228 -12.376932 -0.926169
33 11 HW -12.377442 -11.601219 0.373892
34 12 OW -11.806020 -4.177692 1.415987
35 12 HW -12.378850 -3.413384 1.353289
36 12 HW -12.377469 -4.922022 1.227177
37 13 OW 9.740356 7.336790 8.821738
38 13 HW 8.817494 7.465099 8.602434
39 13 HW 9.950629 8.062756 9.409097
40 14 OW 6.999055 8.816016 -3.575534
41 14 HW 7.789073 9.355647 -3.545520
42 14 HW 6.490854 9.091904 -2.812743
43 15 OW 5.446807 5.498102 12.377490
44 15 HW 5.687618 6.424504 12.382041
45 15 HW 4.489609 5.498943 12.379480
46 16 OW -6.038738 9.389276 4.007078
47 16 HW -6.671071 9.706613 3.362342
48 16 HW -5.365054 10.068603 4.037010
49 17 OW -6.427402 -4.659329 -0.093205
50 17 HW -6.461758 -3.797879 -0.509085
51 17 HW -7.083120 -4.616142 0.602784
52 18 OW 5.721753 -5.470542 3.559432
53 18 HW 4.816006 -5.779346 3.581678
54 18 HW 5.649428 -4.516458 3.532517
55 19 OW 1.492249 -0.498289 3.524685
56 19 HW 1.761998 -1.131534 4.189868
57 19 HW 2.179535 -0.541148 2.859829
58 20 OW -0.575092 -12.006281 -0.870796
59 20 HW -0.734787 -12.379854 -1.737498
60 20 HW 0.265062 -12.377024 -0.600753
61 21 OW 3.890127 9.013207 11.529465
62 21 HW 3.067606 9.491899 11.632152
63 21 HW 4.323927 9.096546 12.378643
64 22 OW -11.868052 -8.446412 0.790399
65 22 HW -11.299675 -7.678166 0.735830
66 22 HW -12.377515 -8.311745 1.589488
67 23 OW 0.034016 -2.743837 11.937877
68 23 HW 0.443587 -3.484912 12.384297
69 23 HW 0.495748 -1.975900 12.274491
70 24 OW -10.763960 -0.740464 -3.735124
71 24 HW -10.382410 -0.303349 -2.973822
72 24 HW -10.160921 -0.543828 -4.451999
73 25 OW 0.457113 -8.733177 -6.100155
74 25 HW 0.497613 -7.815886 -6.370653
75 25 HW -0.473797 -8.898443 -5.950740
76 26 OW -1.561379 5.797373 -3.879461
77 26 HW -0.709402 5.657678 -4.292804
78 26 HW -1.915287 4.916678 -3.755539
79 27 OW 12.375604 9.614446 -2.143513
80 27 HW 12.346926 8.686645 -2.377167
81 27 HW 12.378542 10.073476 -2.983463
82 28 OW 1.881657 -2.176188 -9.399385
83 28 HW 2.323684 -2.692638 -8.725498
84 28 HW 1.063026 -2.644711 -9.562361
85 29 OW -0.157300 0.475705 1.216016
86 29 HW -0.425958 1.161585 1.827264
87 29 HW -0.974129 0.177251 0.816082
88 30 OW -3.521596 -3.108913 6.591946
89 30 HW -3.542921 -4.031240 6.847075
90 30 HW -4.290192 -2.996818 6.032549
91 31 OW -8.864362 -3.324493 12.320200
92 31 HW -8.950640 -3.130468 11.386850
93 31 HW -8.960812 -4.275089 12.377626
94 32 OW -3.678053 -9.468820 1.781016
95 32 HW -2.747589 -9.297766 1.635386
96 32 HW -3.835785 -9.186703 2.681995
97 33 OW -6.215475 6.587970 2.193247
98 33 HW -5.892112 6.535941 3.092670
99 33 HW -7.100359 6.943322 2.276535
100 34 OW 3.607426 2.987740 -12.379406
101 34 HW 3.951729 2.094608 -12.377618
102 34 HW 2.656499 2.878354 -12.381691
103 35 OW -6.764578 -11.634767 -12.378770
104 35 HW -7.338878 -10.868999 -12.382042
105 35 HW -7.361906 -12.382715 -12.376849
106 36 OW -4.054464 -6.778145 -5.090837
107 36 HW -4.189748 -6.568405 -6.014925
108 36 HW -3.276895 -7.336314 -5.082771
109 37 OW -11.847055 -3.519775 12.064399
110 37 HW -12.378107 -2.790651 12.384701
111 37 HW -12.197126 -3.707197 11.193448
112 38 OW 12.180706 12.375450 7.133492
113 38 HW 12.378210 11.481921 6.852725
114 38 HW 12.356387 12.375706 8.074432
115 39 OW 5.622329 -7.269022 -2.310292
116 39 HW 6.529129 -6.967730 -2.254003
117 39 HW 5.109004 -6.467520 -2.411896
118 40 OW -3.354193 11.823121 -3.840603
119 40 HW -3.405846 12.387422 -4.612049
120 40 HW -2.995355 12.386350 -3.154863
121 41 OW 4.160968 3.116817 10.585921
122 41 HW 3.858725 3.800784 9.988368
123 41 HW 3.486919 2.439063 10.535517
124 42 OW -6.451227 11.203206 9.540116
125 42 HW -5.721117 10.584285 9.529776
126 42 HW -7.233275 10.651534 9.557187
127 43 OW 5.269253 12.249238 -8.010966
128 43 HW 6.217277 12.376365 -7.974623
129 43 HW 5.097433 11.544899 -7.385973
130 44 OW -7.227030 -2.621706 6.516210
131 44 HW -7.103275 -1.680433 6.394063
132 44 HW -8.141558 -2.710707 6.784445
133 45 OW 12.376756 1.397244 -10.390711
134 45 HW 11.450253 1.235958 -10.212351
135 45 HW 12.382401 1.866513 -11.224969
136 46 OW 1.282211 -9.580205 -1.023293
137 46 HW 0.722583 -9.462907 -1.790945
138 46 HW 0.718538 -9.364900 -0.280226
139 47 OW 9.790595 -4.338038 7.371468
140 47 HW 9.455429 -4.047008 6.523413
141 47 HW 9.175908 -5.015755 7.652701
142 48 OW 6.412175 2.114441 -10.661317
143 48 HW 6.925611 2.337478 -11.437764
144 48 HW 6.933438 1.449237 -10.211852
145 49 OW 0.525605 0.041325 -7.901833
146 49 HW -0.362270 0.074378 -8.257947
147 49 HW 0.889803 0.907500 -8.084406
148 50 OW -2.986675 11.790346 3.422047
149 50 HW -2.653854 12.376396 2.742335
150 50 HW -3.235098 12.372384 4.140203
151 51 OW -8.072616 8.076967 -4.005085
152 51 HW -7.362493 7.523934 -3.679337
153 51 HW -8.156901 8.769899 -3.350124
154 52 OW -6.912827 12.381573 12.260087
155 52 HW -7.462122 11.608645 12.390811
156 52 HW -6.018184 12.063444 12.381081
157 53 OW -5.111194 -12.390798 -5.258047
158 53 HW -5.886789 -12.379274 -5.818896
159 53 HW -5.459452 -12.376461 -4.366563
160 54 OW 9.646314 9.756084 3.751933
161 54 HW 9.403951 9.031738 3.175030
162 54 HW 9.884642 9.335488 4.578087
163 55 OW 9.320063 -5.991868 -9.489485
164 55 HW 9.773085 -6.203369 -8.673232
165 55 HW 9.125877 -5.057083 -9.420925
166 56 OW 1.916955 3.502615 1.591595
167 56 HW 2.336253 3.284346 0.759261
168 56 HW 1.022282 3.745436 1.353205
169 57 OW -3.153778 -11.382210 -9.590435
170 57 HW -3.850310 -10.725984 -9.611485
171 57 HW -3.614571 -12.219818 -9.542319
172 58 OW -2.470627 4.840767 2.691015
173 58 HW -2.441827 5.790512 2.806723
174 58 HW -1.737676 4.647899 2.106363
175 59 OW 6.754747 12.111744 5.582515
176 59 HW 7.481730 12.380087 5.020625
177 59 HW 5.970428 12.388750 5.108866
178 60 OW -5.895333 -1.801918 9.293745
179 60 HW -5.670846 -0.944148 9.654393
180 60 HW -5.062438 -2.157262 8.983507
181 61 OW -2.973870 -0.978148 12.374906
182 61 HW -2.129349 -0.527576 12.376069
183 61 HW -3.621787 -0.273566 12.374371
184 62 OW -2.854354 -4.883845 12.383435
185 62 HW -1.984035 -5.282276 12.378007
186 62 HW -2.696352 -3.959542 12.191261
187 63 OW 12.378028 6.221993 -4.471222
188 63 HW 11.873656 5.760101 -5.140921
189 63 HW 12.364643 5.636346 -3.714208
190 64 OW 11.798711 -0.257151 0.159348
191 64 HW 12.375901 -1.019581 0.117110
192 64 HW 12.375091 0.489508 -0.003495
193 65 OW 8.927234 0.089053 -12.321545
194 65 HW 9.397524 0.920891 -12.377259
195 65 HW 9.195750 -0.282634 -11.481319
196 66 OW 0.060248 0.677193 9.668722
197 66 HW -0.486633 1.000541 10.384682
198 66 HW 0.935748 1.009854 9.866378
199 67 OW -9.594095 5.558373 -3.267483
200 67 HW -9.908268 4.716079 -2.938748
201 67 HW -9.421156 5.404125 -4.196209
202 68 OW 4.945304 -0.534208 -1.920123
203 68 HW 5.803820 -0.298245 -1.568692
204 68 HW 5.029506 -1.457073 -2.159834
205 69 OW -6.909340 9.025713 -12.082862
206 69 HW -6.323769 8.328482 -12.378171
207 69 HW -6.501924 9.831704 -12.400074
208 70 OW -6.246048 1.173901 -6.205010
209 70 HW -6.825932 1.909069 -6.403740
210 70 HW -6.818411 0.517210 -5.808285
211 71 OW -8.673683 -2.504029 -7.023289
212 71 HW -7.817674 -2.113349 -6.847646
213 71 HW -8.487973 -3.430698 -7.175040
214 72 OW 9.858974 7.215220 -3.180079
215 72 HW 9.832082 6.612791 -2.436717
216 72 HW 9.320365 6.794010 -3.849941
217 73 OW 8.847013 -4.868297 -1.192013
218 73 HW 9.425185 -5.163679 -1.895361
219 73 HW 9.423851 -4.401787 -0.587150
220 74 OW -7.224458 11.962676 -5.076328
221 74 HW -6.367018 12.387870 -5.091793
222 74 HW -7.028978 11.032251 -4.965293
223 75 OW -9.868321 -9.021933 3.208125
224 75 HW -9.429385 -9.368179 2.431156
225 75 HW -10.489822 -9.705888 3.457470
226 76 OW 0.808566 3.794026 12.381023
227 76 HW 1.736946 4.027132 12.383189
228 76 HW 0.801473 2.836862 12.376759
229 77 OW 5.373836 6.153179 -5.185088
230 77 HW 5.155803 7.085204 -5.189714
231 77 HW 6.330358 6.130612 -5.157031
232 78 OW 7.655450 8.866492 -6.502233
233 78 HW 7.158139 8.283051 -7.075392
234 78 HW 7.426214 9.747173 -6.799023
235 79 OW 4.211391 0.235077 -9.871959
236 79 HW 4.300120 -0.415443 -9.175408
237 79 HW 3.293734 0.504582 -9.833160
238 80 OW 9.264130 5.720915 11.435139
239 80 HW 8.498495 6.287998 11.343205
240 80 HW 9.383970 5.630896 12.380532
241 81 OW 6.119118 -6.656721 -11.325915
242 81 HW 6.000165 -6.166576 -12.139451
243 81 HW 6.537139 -6.035027 -10.730107
244 82 OW -0.618449 2.840938 -6.356393
245 82 HW -1.271474 3.540648 -6.342383
246 82 HW 0.221712 3.297598 -6.399096
247 83 OW 1.287638 6.285718 4.006207
248 83 HW 1.658753 5.518356 4.441707
249 83 HW 0.658393 5.925951 3.381027
250 84 OW -0.086738 12.387703 4.294548
251 84 HW -0.424859 12.375062 5.189951
252 84 HW 0.000054 11.464329 4.057736
253 85 OW 12.377385 -3.925111 -0.806233
254 85 HW 12.374844 -4.849299 -1.055435
255 85 HW 12.374761 -3.452150 -1.638419
256 86 OW 9.102044 11.813331 1.637699
257 86 HW 9.559236 12.379574 1.015946
258 86 HW 8.924606 12.377407 2.390404
259 87 OW 2.838780 12.387253 1.952028
260 87 HW 3.120859 12.143225 1.070488
261 87 HW 1.882589 12.379622 1.908758
262 88 OW -5.705916 1.136316 4.269722
263 88 HW -6.149432 0.291361 4.344411
264 88 HW -6.414387 1.770159 4.157727
265 89 OW -5.169576 12.244506 6.429501
266 89 HW -5.884400 11.619681 6.551374
267 89 HW -4.831368 12.397330 7.311823
268 90 OW -8.035742 12.306821 -7.943920
269 90 HW -8.258867 11.387191 -8.087890
270 90 HW -7.118516 12.375551 -8.208882
271 91 OW 0.775520 5.686518 -12.253108
272 91 HW 0.002451 5.136641 -12.380506
273 91 HW 1.194463 5.333439 -11.468217
274 92 OW -6.941053 0.659231 -9.128049
275 92 HW -7.527846 1.276700 -9.564670
276 92 HW -6.106219 0.756688 -9.586074
277 93 OW -4.784238 -3.176659 -6.302104
278 93 HW -5.147110 -2.732045 -5.536026
279 93 HW -5.412958 -3.871799 -6.496328
280 94 OW -0.567258 2.470979 4.618220
281 94 HW -1.467281 2.512723 4.295037
282 94 HW -0.091152 3.107880 4.085384
283 95 OW 12.377633 11.796947 -5.638517
284 95 HW 12.207160 12.377597 -4.896886
285 95 HW 12.389148 12.377064 -6.399808
286 96 OW 8.013956 -9.373026 -9.831949
287 96 HW 8.041633 -10.293977 -9.572497
288 96 HW 7.262353 -9.312286 -10.421555
289 97 OW 5.684513 -3.456619 -9.455616
290 97 HW 6.625557 -3.404993 -9.288274
291 97 HW 5.279047 -3.197794 -8.628066
292 98 OW 1.853390 2.622824 6.863808
293 98 HW 1.619878 3.535081 6.692082
294 98 HW 2.265911 2.639172 7.727400
295 99 OW 7.638385 -9.729781 12.166302
296 99 HW 7.420148 -9.401691 11.293971
297 99 HW 8.456408 -9.286724 12.391625
298 100 OW 8.912116 -11.569434 -1.272346
299 100 HW 9.563495 -10.874461 -1.366954
300 100 HW 9.421618 -12.379619 -1.287797
301 101 OW -1.688316 -1.975765 9.604752
302 101 HW -2.233366 -1.230290 9.352918
303 101 HW -2.128400 -2.734886 9.222270
304 102 OW 12.188224 0.308416 -7.456644
305 102 HW 12.375627 1.235362 -7.308716
306 102 HW 12.392200 -0.113813 -6.622168
307 103 OW -5.994443 -2.609394 3.594337
308 103 HW -6.945123 -2.526067 3.520193
309 103 HW -5.754202 -3.234127 2.910068
310 104 OW -6.283063 -9.760215 10.460394
311 104 HW -5.411087 -9.629960 10.087672
312 104 HW -6.264212 -9.280465 11.288474
313 105 OW -2.047368 11.291878 7.468937
314 105 HW -1.348856 10.907167 7.998379
315 105 HW -2.293282 10.598991 6.856021
316 106 OW 3.968524 -6.549598 9.894915
317 106 HW 3.778896 -5.885788 9.231870
318 106 HW 4.923873 -6.606957 9.910721
319 107 OW 12.391985 4.521389 -8.723576
320 107 HW 11.774928 4.046483 -8.166855
321 107 HW 11.964438 4.557569 -9.579220
322 108 OW 9.793511 9.819059 -9.191993
323 108 HW 9.404627 8.982574 -8.936464
324 108 HW 9.054680 10.426660 -9.226379
325 109 OW -8.907521 4.716995 11.435305
326 109 HW -9.128213 4.717945 12.366716
327 109 HW -9.083835 5.612226 11.145984
328 110 OW 0.541749 -11.477190 -4.313095
329 110 HW 0.832454 -12.389005 -4.295316
330 110 HW 1.351623 -10.966975 -4.309030
331 111 OW -12.385183 5.489939 -4.649511
332 111 HW -12.367469 5.613052 -5.598596
333 111 HW -12.320478 6.375273 -4.291421
334 112 OW -6.350630 -7.687629 -9.494003
335 112 HW -7.182074 -8.107853 -9.713880
336 112 HW -5.744637 -8.414690 -9.351220
337 113 OW 7.198368 -6.065821 -7.139907
338 113 HW 6.466705 -5.455285 -7.049645
339 113 HW 6.920043 -6.674439 -7.824269
340 114 OW 9.180168 1.017262 -2.471279
341 114 HW 8.425507 1.193538 -1.909455
342 114 HW 9.910230 0.901390 -1.863154
343 115 OW 0.387271 9.071145 6.381645
344 115 HW 1.112753 8.563648 6.017840
345 115 HW -0.174584 8.419708 6.801384
346 116 OW -10.372892 1.335083 3.054014
347 116 HW -10.926392 0.566012 3.189659
348 116 HW -9.545454 0.980824 2.728315
349 117 OW 2.800077 -7.959075 4.009910
350 117 HW 3.188714 -8.743953 4.396122
351 117 HW 2.183951 -7.645671 4.672027
352 118 OW -3.005857 -8.911772 11.840951
353 118 HW -3.016413 -8.098667 12.345906
354 118 HW -3.483806 -9.538092 12.384569
355 119 OW 12.387446 -5.283343 -4.023717
356 119 HW 12.180528 -4.456160 -4.458673
357 119 HW 11.544249 -5.728932 -3.941859
358 120 OW 10.690308 -7.371121 11.809006
359 120 HW 10.148312 -6.809659 12.363292
360 120 HW 11.411317 -7.644251 12.376261
361 121 OW -3.621953 2.454313 -3.997822
362 121 HW -4.476773 2.719148 -4.337495
363 121 HW -3.615534 1.500769 -4.081147
364 122 OW -0.149604 -0.405583 6.384878
365 122 HW -0.495877 -1.127439 6.909522
366 122 HW -0.744846 -0.344843 5.637730
367 123 OW 7.910079 -7.409981 9.039934
368 123 HW 8.329454 -7.842782 8.296267
369 123 HW 8.631050 -7.201375 9.634001
370 124 OW 3.506795 -4.032891 -12.381765
371 124 HW 3.109594 -3.906477 -11.520091
372 124 HW 4.379376 -3.647433 -12.302679
373 125 OW 8.842704 10.692384 7.202918
374 125 HW 8.260665 9.954060 7.023081
375 125 HW 9.684066 10.288467 7.415505
376 126 OW 8.510933 -11.209828 2.356329
377 126 HW 7.924642 -10.549843 2.726351
378 126 HW 8.932931 -10.769422 1.618635
379 127 OW 10.381420 2.203667 2.299526
380 127 HW 9.978720 1.578281 1.697067
381 127 HW 10.000904 1.994286 3.152520
382 128 OW -5.480586 5.767517 12.355410
383 128 HW -6.387129 6.074052 12.376547
384 128 HW -5.389079 5.347726 11.500053
385 129 OW 5.654110 -12.380108 0.739123
386 129 HW 5.783092 -12.375792 1.687583
387 129 HW 6.539938 -12.377575 0.376448
388 130 OW 4.745574 -0.922651 4.422691
389 130 HW 5.651342 -0.644067 4.557624
390 130 HW 4.807892 -1.649948 3.803509
391 131 OW -9.782042 -7.756822 -12.359839
392 131 HW -9.454335 -7.228532 -11.632000
393 131 HW -9.205656 -8.520749 -12.380484
394 132 OW 0.044056 -4.748883 9.693485
395 132 HW 0.979654 -4.941787 9.754126
396 132 HW -0.385245 -5.588391 9.858286
397 133 OW 11.798008 -10.267429 -4.485613
398 133 HW 12.379662 -11.025011 -4.422528
399 133 HW 12.381241 -9.532061 -4.673514
400 134 OW -5.142444 -0.536710 0.855068
401 134 HW -5.472601 -1.033416 0.106395
402 134 HW -5.880776 -0.499995 1.463137
403 135 OW -6.671100 -5.787897 5.665768
404 135 HW -6.805917 -5.153001 4.962231
405 135 HW -7.528125 -6.196331 5.787928
406 136 OW -8.828257 8.384905 12.261577
407 136 HW -9.301376 9.209177 12.375439
408 136 HW -7.914241 8.646283 12.149825
409 137 OW 6.195282 3.750731 -6.978381
410 137 HW 6.845637 3.162035 -6.595357
411 137 HW 6.107199 3.454254 -7.884237
412 138 OW 6.850473 2.890477 11.895437
413 138 HW 6.571361 2.110971 12.375748
414 138 HW 7.613315 3.209252 12.377813
415 139 OW -10.887889 8.738065 -6.113907
416 139 HW -11.706456 8.403289 -6.480110
417 139 HW -10.368188 7.954990 -5.932421
418 140 OW 12.384131 -11.797768 9.589914
419 140 HW 12.208851 -12.375828 10.332448
420 140 HW 12.375538 -12.376790 8.827752
421 141 OW 1.175062 12.246125 -8.944022
422 141 HW 1.911300 12.375039 -8.346052
423 141 HW 1.221849 11.321306 -9.186409
424 142 OW -3.923919 8.504448 1.921336
425 142 HW -3.070940 8.817155 1.619886
426 142 HW -4.556681 8.962778 1.368365
427 143 OW -8.525413 -0.469837 8.741658
428 143 HW -8.554958 0.483721 8.819678
429 143 HW -9.416276 -0.754970 8.944866
430 144 OW 1.765417 8.508077 -10.075343
431 144 HW 1.159114 8.308329 -10.788595
432 144 HW 2.215269 7.680734 -9.903973
433 145 OW -1.776128 1.934019 7.323024
434 145 HW -1.058374 2.514039 7.577262
435 145 HW -2.502492 2.524474 7.123047
436 146 OW -9.580947 -11.357666 -7.491490
437 146 HW -8.928091 -10.833487 -7.027544
438 146 HW -9.504205 -12.231186 -7.107687
439 147 OW -12.391890 11.409869 5.376943
440 147 HW -11.839278 10.811360 4.874311
441 147 HW -12.294059 12.254003 4.936376
442 148 OW -4.604396 4.584433 4.972264
443 148 HW -4.266021 3.689310 4.994378
444 148 HW -5.490274 4.514974 5.328110
445 149 OW 12.377789 -1.094517 12.374781
446 149 HW 12.268421 -0.230514 11.977580
447 149 HW 11.496602 -1.468252 12.382790
448 150 OW 11.848828 -8.932716 -1.669422
449 150 HW 11.849614 -8.079426 -2.103159
450 150 HW 12.386185 -8.805036 -0.887644
451 151 OW 1.562298 -7.710353 7.678167
452 151 HW 1.018409 -8.415306 7.326801
453 151 HW 1.355024 -7.690240 8.612439
454 152 OW -8.391493 -7.289258 0.111245
455 152 HW -7.703989 -7.677032 0.652726
456 152 HW -7.975485 -7.146449 -0.738916
457 153 OW -2.348238 -12.360540 2.633337
458 153 HW -1.836994 -12.382667 1.824404
459 153 HW -3.259666 -12.385970 2.341985
460 154 OW 2.566845 6.311946 7.390561
461 154 HW 2.992126 6.062136 8.210904
462 154 HW 3.275700 6.658281 6.848519
463 155 OW 9.000049 -6.545917 2.846492
464 155 HW 9.237468 -5.964012 3.568468
465 155 HW 8.392467 -6.032363 2.314197
466 156 OW 5.686688 -10.537637 -2.101313
467 156 HW 6.320316 -10.084354 -1.545182
468 156 HW 6.166469 -11.289943 -2.447835
469 157 OW -4.049580 -5.952889 1.270789
470 157 HW -3.157950 -5.984440 0.924044
471 157 HW -4.481511 -6.718655 0.892278
472 158 OW 2.273622 7.117520 1.050657
473 158 HW 2.453328 6.286504 0.610942
474 158 HW 2.209373 7.755908 0.340330
475 159 OW -9.397457 5.521392 -7.393093
476 159 HW -8.914425 4.756219 -7.080968
477 159 HW -8.718664 6.140830 -7.660988
478 160 OW 3.693475 -0.139787 7.120817
479 160 HW 2.750153 -0.275774 7.209613
480 160 HW 4.080228 -0.985623 7.347124
481 161 OW -12.113173 -2.372746 -12.376163
482 161 HW -11.374984 -1.763399 -12.378599
483 161 HW -12.382159 -2.420203 -11.458761
484 162 OW 6.877117 6.148958 -2.207657
485 162 HW 7.172293 5.238443 -2.199573
486 162 HW 5.921889 6.091778 -2.185253
487 163 OW -2.176056 -3.867314 -4.990619
488 163 HW -2.618907 -3.611247 -4.181579
489 163 HW -1.813574 -4.732948 -4.802161
490 164 OW 8.530775 -3.203582 -12.075691
491 164 HW 7.992502 -3.936224 -12.375241
492 164 HW 9.413946 -3.566476 -12.008252
493 165 OW -4.306503 1.727347 9.663076
494 165 HW -4.298039 2.673993 9.521578
495 165 HW -3.389315 1.499105 9.814416
496 166 OW 3.951935 -9.968105 1.271792
497 166 HW 3.099318 -9.615888 1.527173
498 166 HW 3.983444 -9.855217 0.321794
499 167 OW 5.859418 12.270132 8.838200
500 167 HW 5.525706 11.579076 8.266091
501 167 HW 6.771134 12.384356 8.569947
502 168 OW 12.377024 -6.344087 8.729679
503 168 HW 12.370928 -5.431025 8.442429
504 168 HW 11.489231 -6.500320 9.051622
505 169 OW 6.863448 -1.844645 12.378325
506 169 HW 6.694724 -0.902433 12.378489
507 169 HW 5.993632 -2.244209 12.377903
508 170 OW 8.164975 12.369881 -12.331363
509 170 HW 8.353451 12.379352 -11.392950
510 170 HW 7.209300 12.380576 -12.384320
511 171 OW 11.868756 1.334242 9.449427
512 171 HW 10.990770 1.402034 9.074227
513 171 HW 12.381054 1.994078 8.982095
514 172 OW -6.187749 -1.014817 -3.307312
515 172 HW -5.326761 -0.995719 -2.889500
516 172 HW -6.805546 -1.093508 -2.580423
517 173 OW -3.710148 1.018178 -7.800168
518 173 HW -3.118933 1.227623 -8.523238
519 173 HW -3.400218 1.557699 -7.072781
520 174 OW 2.282353 -12.289171 11.991051
521 174 HW 3.234835 -12.383073 11.977249
522 174 HW 2.133457 -11.345177 11.936869
523 175 OW 12.390246 -11.803139 -0.986068
524 175 HW 12.233156 -12.383713 -0.241428
525 175 HW 12.385807 -12.383020 -1.747613
526 176 OW -6.549793 8.890719 -7.010743
527 176 HW -7.486885 8.758389 -6.867291
528 176 HW -6.130705 8.476807 -6.256241
529 177 OW 6.100104 -12.091026 11.137963
530 177 HW 6.887858 -12.377634 10.675869
531 177 HW 6.234087 -12.377751 12.041328
532 178 OW 0.428154 -6.487794 1.493677
533 178 HW 0.754343 -7.278074 1.924130
534 178 HW -0.270703 -6.798948 0.918340
535 179 OW 12.016901 7.513640 -9.070619
536 179 HW 12.379699 8.319078 -9.439237
537 179 HW 12.375993 7.472325 -8.184291
538 180 OW -0.493278 6.479769 0.082650
539 180 HW -0.298709 6.614357 -0.844852
540 180 HW -0.761257 7.342418 0.399283
541 181 OW -9.416093 0.716641 -11.827271
542 181 HW -8.992632 0.059559 -12.379680
543 181 HW -9.477087 1.493849 -12.382662
544 182 OW -9.715656 7.723942 9.111121
545 182 HW -9.421152 8.616208 9.293770
546 182 HW -9.941474 7.731428 8.180969
547 183 OW -9.241278 11.798792 7.110121
548 183 HW -8.613472 12.383862 7.534132
549 183 HW -9.909803 12.382913 6.752198
550 184 OW 7.563767 6.402483 5.759002
551 184 HW 8.164298 7.144851 5.692035
552 184 HW 7.309400 6.217267 4.854997
553 185 OW 5.007250 2.688489 -0.934808
554 185 HW 5.920787 2.693866 -1.220558
555 185 HW 4.718407 3.595299 -1.037267
556 186 OW 6.283830 11.802453 0.609539
557 186 HW 6.682939 12.375868 -0.044784
558 186 HW 6.106121 12.376086 1.354922
559 187 OW -2.754114 -2.350841 0.796463
560 187 HW -2.289748 -2.755749 0.063902
561 187 HW -3.411681 -2.998176 1.051014
562 188 OW -6.812670 -12.203897 8.802848
563 188 HW -7.587816 -11.734374 8.494744
564 188 HW -6.305343 -12.376107 8.009631
565 189 OW -2.275008 -4.223981 4.101632
566 189 HW -3.107464 -4.422608 3.672917
567 189 HW -1.922976 -3.481897 3.610087
568 190 OW 3.749739 -4.884674 12.380739
569 190 HW 3.686209 -4.088130 11.853755
570 190 HW 2.866529 -5.253386 12.365807
571 191 OW -3.633336 -12.343092 -0.663818
572 191 HW -3.491561 -11.411224 -0.497223
573 191 HW -3.909122 -12.383941 -1.579517
574 192 OW 12.377688 -4.918300 11.440563
575 192 HW 12.385171 -4.026650 11.092517
576 192 HW 12.379709 -4.804943 12.391025
577 193 OW 9.275073 9.486915 -0.942820
578 193 HW 9.978287 9.738895 -0.344298
579 193 HW 8.484196 9.861770 -0.555226
580 194 OW 7.015051 4.151879 2.040331
581 194 HW 6.560590 4.323384 1.215538
582 194 HW 7.726008 3.556411 1.803287
583 195 OW 12.375687 -5.367478 -11.287160
584 195 HW 12.374856 -4.629808 -10.677180
585 195 HW 12.380197 -4.961931 -12.154191
586 196 OW -6.365141 -1.263674 -11.789726
587 196 HW -5.994441 -0.603373 -12.375231
588 196 HW -6.739745 -1.921105 -12.375975
589 197 OW -5.643232 3.113099 1.588468
590 197 HW -5.216124 3.760039 2.149965
591 197 HW -5.033142 2.375905 1.564656
592 198 OW 0.380407 -5.548808 -8.331696
593 198 HW 1.249697 -5.388321 -7.964530
594 198 HW 0.521816 -5.581544 -9.277827
595 199 OW -9.425101 -9.823443 -1.400740
596 199 HW -9.652870 -10.012154 -0.490387
597 199 HW -10.015748 -10.373854 -1.914953
598 200 OW -7.544318 2.661608 -2.945415
599 200 HW -7.085397 1.842201 -3.130337
600 200 HW -7.475226 3.163876 -3.757317
601 201 OW 12.383484 -6.931032 -6.559006
602 201 HW 12.244919 -6.082113 -6.978968
603 201 HW 11.507504 -7.310789 -6.490635
604 202 OW 6.292051 0.300057 -4.467596
605 202 HW 6.795593 -0.510466 -4.391901
606 202 HW 6.953729 0.990075 -4.515452
607 203 OW 3.279316 8.912353 -6.652555
608 203 HW 2.779211 9.306505 -7.367238
609 203 HW 2.638512 8.388704 -6.171521
610 204 OW -3.747653 -12.004642 5.291113
611 204 HW -3.799633 -11.095640 4.995737
612 204 HW -4.586876 -12.388115 5.036390
613 205 OW 9.091468 0.765371 11.460133
614 205 HW 9.303530 0.578752 12.374701
615 205 HW 9.228657 -0.066738 11.007356
616 206 OW 0.483826 12.355612 -2.905053
617 206 HW -0.154390 12.378920 -2.192053
618 206 HW -0.045879 12.376274 -3.702058
619 207 OW -12.362961 -9.687552 -12.366939
620 207 HW -12.380482 -10.644512 -12.379242
621 207 HW -12.376009 -9.459216 -11.437463
622 208 OW -12.375621 -11.733612 4.840613
623 208 HW -12.375034 -12.347417 5.575102
624 208 HW -12.017150 -12.235202 4.108398
625 209 OW 5.259144 -11.041822 -8.736973
626 209 HW 4.838411 -10.865176 -9.578408
627 209 HW 5.315939 -10.185700 -8.312637
628 210 OW -9.562565 8.163424 -0.292884
629 210 HW -9.515548 7.510122 -0.990894
630 210 HW -9.758074 8.984114 -0.745076
631 211 OW 11.951788 2.254077 -4.124759
632 211 HW 12.375076 2.826356 -4.764724
633 211 HW 12.375165 2.468970 -3.293612
634 212 OW -8.786396 4.694502 -0.156612
635 212 HW -7.937304 5.051062 0.104425
636 212 HW -9.153157 4.332945 0.650231
637 213 OW -3.749264 -9.560960 -12.377784
638 213 HW -3.412642 -8.667304 -12.312235
639 213 HW -4.687447 -9.477112 -12.207452
640 214 OW -4.541348 12.035891 -11.855538
641 214 HW -3.983791 11.462081 -12.380992
642 214 HW -3.959236 12.382761 -11.179477
643 215 OW 7.286645 2.375955 5.077611
644 215 HW 7.629527 3.234556 4.829686
645 215 HW 7.210847 1.899893 4.250658
646 216 OW 4.946577 6.212188 -8.153710
647 216 HW 4.079618 5.908591 -7.884559
648 216 HW 4.797050 7.094372 -8.493746
649 217 OW -7.129424 3.116782 8.634820
650 217 HW -6.677518 3.345235 7.822526
651 217 HW -7.022347 3.886495 9.193666
652 218 OW -4.443713 9.690224 -9.818921
653 218 HW -5.374988 9.788447 -9.620648
654 218 HW -4.363068 8.798303 -10.156864
655 219 OW 7.100529 -5.847139 11.830132
656 219 HW 6.737480 -5.150715 12.377325
657 219 HW 7.065604 -6.628622 12.381762
658 220 OW 9.882107 4.588516 -12.382198
659 220 HW 8.960459 4.330069 -12.380363
660 220 HW 10.363377 3.761108 -12.379597
661 221 OW -8.611843 3.715175 3.535292
662 221 HW -7.872077 4.322260 3.514686
663 221 HW -8.786150 3.580805 4.466846
664 222 OW 7.692905 -11.567433 7.568970
665 222 HW 8.058217 -10.910153 6.976719
666 222 HW 7.683878 -12.374947 7.055092
667 223 OW -12.384633 11.568887 12.086119
668 223 HW -11.965327 12.374920 12.387325
669 223 HW -11.799477 10.870156 12.378692
670 224 OW -5.656835 -6.638342 -12.217303
671 224 HW -5.617256 -5.695401 -12.377078
672 224 HW -6.571399 -6.870776 -12.377864
673 225 OW -12.308648 -12.379416 -8.922176
674 225 HW -12.376908 -12.334827 -7.968455
675 225 HW -12.379409 -11.469465 -9.210645
676 226 OW 1.889469 12.366694 9.320864
677 226 HW 2.681454 12.380246 8.783457
678 226 HW 1.170496 12.381399 8.689126
679 227 OW 12.389856 8.786299 3.022377
680 227 HW 12.330404 9.134176 2.132613
681 227 HW 12.380069 7.835817 2.909591
682 228 OW -8.978238 6.863542 -12.285858
683 228 HW -9.184073 6.884871 -11.351295
684 228 HW -8.367586 6.132527 -12.380481
685 229 OW -6.893014 -4.843115 8.504202
686 229 HW -7.253053 -4.476789 9.311920
687 229 HW -6.827173 -5.782606 8.675239
688 230 OW -10.144477 -4.956482 6.573178
689 230 HW -10.926674 -5.497422 6.681728
690 230 HW -10.246279 -4.558070 5.708807
691 231 OW 9.656366 -10.280015 9.436063
692 231 HW 9.489036 -11.086810 9.923212
693 231 HW 10.220087 -9.764130 10.012529
694 232 OW 7.236415 11.772042 12.318585
695 232 HW 6.530309 11.129073 12.383674
696 232 HW 6.945386 12.380132 11.639056
697 233 OW -3.557426 -2.465149 -12.366385
698 233 HW -4.047771 -3.174577 -11.951047
699 233 HW -2.652305 -2.776178 -12.382150
700 234 OW 4.011519 -9.049547 12.386670
701 234 HW 4.646025 -9.766152 12.376189
702 234 HW 4.546187 -8.255594 12.388102
703 235 OW -1.644317 -8.510411 9.072696
704 235 HW -2.458055 -8.980239 8.890144
705 235 HW -1.099337 -9.145769 9.536968
706 236 OW 6.175683 -1.153359 -12.311567
707 236 HW 5.800703 -0.276035 -12.388524
708 236 HW 6.359598 -1.254670 -11.377681
709 237 OW -1.666417 3.362630 -10.050272
710 237 HW -1.119971 2.919856 -10.699565
711 237 HW -1.066225 3.573247 -9.334981
712 238 OW 9.401652 -3.970881 11.401250
713 238 HW 9.295998 -3.064034 11.113680
714 238 HW 9.461977 -4.474569 10.589529
715 239 OW -11.446067 3.839781 -12.365750
716 239 HW -12.393156 3.977264 -12.384521
717 239 HW -11.074894 4.721520 -12.397345
718 240 OW -11.476903 -2.920072 -5.724465
719 240 HW -11.019438 -3.751301 -5.597912
720 240 HW -12.392298 -3.167412 -5.855255
721 241 OW -3.926954 5.486061 -12.267701
722 241 HW -3.997438 6.434354 -12.377269
723 241 HW -2.986382 5.321442 -12.200948
724 242 OW 12.160735 -12.382612 -7.665045
725 242 HW 12.384530 -11.467435 -7.495934
726 242 HW 11.219181 -12.371589 -7.837052
727 243 OW 9.054695 -0.340932 5.175034
728 243 HW 9.461963 -1.119829 5.554091
729 243 HW 9.467573 0.392075 5.631613
730 244 OW -9.844885 -12.313325 2.040718
731 244 HW -9.289463 -12.379586 2.817472
732 244 HW -9.236762 -12.379542 1.304489
733 245 OW 2.119903 3.421696 -9.341762
734 245 HW 1.827057 4.144989 -8.787398
735 245 HW 3.047994 3.598050 -9.495963
736 246 OW -0.962064 5.671143 5.893226
737 246 HW -0.758749 5.392259 6.786041
738 246 HW -1.743416 5.170935 5.657617
739 247 OW -11.888387 -8.045794 -2.182613
740 247 HW -12.377009 -8.501076 -2.868324
741 247 HW -12.383933 -7.241479 -2.028525
742 248 OW 12.198433 -12.378939 -10.955795
743 248 HW 12.379533 -12.226859 -11.883322
744 248 HW 12.377534 -11.537923 -10.535264
745 249 OW 12.157300 -0.749537 3.096844
746 249 HW 12.382060 0.171280 3.230300
747 249 HW 11.200661 -0.769295 3.123011
748 250 OW 2.514809 12.372377 5.788252
749 250 HW 2.324382 11.449102 5.954185
750 250 HW 2.974834 12.375442 4.948848
751 251 OW 12.135887 -3.262263 -8.018247
752 251 HW 12.383227 -3.073287 -7.113072